<?xml version="1.0"?>
<VTKFile type="UnstructuredGrid"  version="0.1"  >
<UnstructuredGrid>
<Piece  NumberOfPoints="484" NumberOfCells="1800">
<Points>
<DataArray  type="Float64"  NumberOfComponents="3"  format="ascii">0 0 0  0.1 0 0  0.2 0 0  0.3 0 0  0.4 0 0  0.5 0 0  0.6 0 0  0.7 0 0  0.8 0 0  0.9 0 0  1 0 0  0 0.1 0  0.1 0.1 0  0.2 0.1 0  0.3 0.1 0  0.4 0.1 0  0.5 0.1 0  0.6 0.1 0  0.7 0.1 0  0.8 0.1 0  0.9 0.1 0  1 0.1 0  0 0.2 0  0.1 0.2 0  0.2 0.2 0  0.3 0.2 0  0.4 0.2 0  0.5 0.2 0  0.6 0.2 0  0.7 0.2 0  0.8 0.2 0  0.9 0.2 0  1 0.2 0  0 0.3 0  0.1 0.3 0  0.2 0.3 0  0.3 0.3 0  0.4 0.3 0  0.5 0.3 0  0.6 0.3 0  0.7 0.3 0  0.8 0.3 0  0.9 0.3 0  1 0.3 0  0 0.4 0  0.1 0.4 0  0.2 0.4 0  0.3 0.4 0  0.4 0.4 0  0.5 0.4 0  0.6 0.4 0  0.7 0.4 0  0.8 0.4 0  0.9 0.4 0  1 0.4 0  0 0.5 0  0.1 0.5 0  0.2 0.5 0  0.3 0.5 0  0.4 0.5 0  0.5 0.5 0  0.6 0.5 0  0.7 0.5 0  0.8 0.5 0  0.9 0.5 0  1 0.5 0  0 0.6 0  0.1 0.6 0  0.2 0.6 0  0.3 0.6 0  0.4 0.6 0  0.5 0.6 0  0.6 0.6 0  0.7 0.6 0  0.8 0.6 0  0.9 0.6 0  1 0.6 0  0 0.7 0  0.1 0.7 0  0.2 0.7 0  0.3 0.7 0  0.4 0.7 0  0.5 0.7 0  0.6 0.7 0  0.7 0.7 0  0.8 0.7 0  0.9 0.7 0  1 0.7 0  0 0.8 0  0.1 0.8 0  0.2 0.8 0  0.3 0.8 0  0.4 0.8 0  0.5 0.8 0  0.6 0.8 0  0.7 0.8 0  0.8 0.8 0  0.9 0.8 0  1 0.8 0  0 0.9 0  0.1 0.9 0  0.2 0.9 0  0.3 0.9 0  0.4 0.9 0  0.5 0.9 0  0.6 0.9 0  0.7 0.9 0  0.8 0.9 0  0.9 0.9 0  1 0.9 0  0 1 0  0.1 1 0  0.2 1 0  0.3 1 0  0.4 1 0  0.5 1 0  0.6 1 0  0.7 1 0  0.8 1 0  0.9 1 0  1 1 0  0 0 0.09999999999999999  0.1 0 0.09999999999999999  0.2 0 0.09999999999999999  0.3 0 0.09999999999999999  0.4 0 0.09999999999999999  0.5 0 0.09999999999999999  0.6 0 0.09999999999999999  0.7 0 0.09999999999999999  0.8 0 0.09999999999999999  0.9 0 0.09999999999999999  1 0 0.09999999999999999  0 0.1 0.09999999999999999  0.1 0.1 0.09999999999999999  0.2 0.1 0.09999999999999999  0.3 0.1 0.09999999999999999  0.4 0.1 0.09999999999999999  0.5 0.1 0.09999999999999999  0.6 0.1 0.09999999999999999  0.7 0.1 0.09999999999999999  0.8 0.1 0.09999999999999999  0.9 0.1 0.09999999999999999  1 0.1 0.09999999999999999  0 0.2 0.09999999999999999  0.1 0.2 0.09999999999999999  0.2 0.2 0.09999999999999999  0.3 0.2 0.09999999999999999  0.4 0.2 0.09999999999999999  0.5 0.2 0.09999999999999999  0.6 0.2 0.09999999999999999  0.7 0.2 0.09999999999999999  0.8 0.2 0.09999999999999999  0.9 0.2 0.09999999999999999  1 0.2 0.09999999999999999  0 0.3 0.09999999999999999  0.1 0.3 0.09999999999999999  0.2 0.3 0.09999999999999999  0.3 0.3 0.09999999999999999  0.4 0.3 0.09999999999999999  0.5 0.3 0.09999999999999999  0.6 0.3 0.09999999999999999  0.7 0.3 0.09999999999999999  0.8 0.3 0.09999999999999999  0.9 0.3 0.09999999999999999  1 0.3 0.09999999999999999  0 0.4 0.09999999999999999  0.1 0.4 0.09999999999999999  0.2 0.4 0.09999999999999999  0.3 0.4 0.09999999999999999  0.4 0.4 0.09999999999999999  0.5 0.4 0.09999999999999999  0.6 0.4 0.09999999999999999  0.7 0.4 0.09999999999999999  0.8 0.4 0.09999999999999999  0.9 0.4 0.09999999999999999  1 0.4 0.09999999999999999  0 0.5 0.09999999999999999  0.1 0.5 0.09999999999999999  0.2 0.5 0.09999999999999999  0.3 0.5 0.09999999999999999  0.4 0.5 0.09999999999999999  0.5 0.5 0.09999999999999999  0.6 0.5 0.09999999999999999  0.7 0.5 0.09999999999999999  0.8 0.5 0.09999999999999999  0.9 0.5 0.09999999999999999  1 0.5 0.09999999999999999  0 0.6 0.09999999999999999  0.1 0.6 0.09999999999999999  0.2 0.6 0.09999999999999999  0.3 0.6 0.09999999999999999  0.4 0.6 0.09999999999999999  0.5 0.6 0.09999999999999999  0.6 0.6 0.09999999999999999  0.7 0.6 0.09999999999999999  0.8 0.6 0.09999999999999999  0.9 0.6 0.09999999999999999  1 0.6 0.09999999999999999  0 0.7 0.09999999999999999  0.1 0.7 0.09999999999999999  0.2 0.7 0.09999999999999999  0.3 0.7 0.09999999999999999  0.4 0.7 0.09999999999999999  0.5 0.7 0.09999999999999999  0.6 0.7 0.09999999999999999  0.7 0.7 0.09999999999999999  0.8 0.7 0.09999999999999999  0.9 0.7 0.09999999999999999  1 0.7 0.09999999999999999  0 0.8 0.09999999999999999  0.1 0.8 0.09999999999999999  0.2 0.8 0.09999999999999999  0.3 0.8 0.09999999999999999  0.4 0.8 0.09999999999999999  0.5 0.8 0.09999999999999999  0.6 0.8 0.09999999999999999  0.7 0.8 0.09999999999999999  0.8 0.8 0.09999999999999999  0.9 0.8 0.09999999999999999  1 0.8 0.09999999999999999  0 0.9 0.09999999999999999  0.1 0.9 0.09999999999999999  0.2 0.9 0.09999999999999999  0.3 0.9 0.09999999999999999  0.4 0.9 0.09999999999999999  0.5 0.9 0.09999999999999999  0.6 0.9 0.09999999999999999  0.7 0.9 0.09999999999999999  0.8 0.9 0.09999999999999999  0.9 0.9 0.09999999999999999  1 0.9 0.09999999999999999  0 1 0.09999999999999999  0.1 1 0.09999999999999999  0.2 1 0.09999999999999999  0.3 1 0.09999999999999999  0.4 1 0.09999999999999999  0.5 1 0.09999999999999999  0.6 1 0.09999999999999999  0.7 1 0.09999999999999999  0.8 1 0.09999999999999999  0.9 1 0.09999999999999999  1 1 0.09999999999999999  0 0 0.2  0.1 0 0.2  0.2 0 0.2  0.3 0 0.2  0.4 0 0.2  0.5 0 0.2  0.6 0 0.2  0.7 0 0.2  0.8 0 0.2  0.9 0 0.2  1 0 0.2  0 0.1 0.2  0.1 0.1 0.2  0.2 0.1 0.2  0.3 0.1 0.2  0.4 0.1 0.2  0.5 0.1 0.2  0.6 0.1 0.2  0.7 0.1 0.2  0.8 0.1 0.2  0.9 0.1 0.2  1 0.1 0.2  0 0.2 0.2  0.1 0.2 0.2  0.2 0.2 0.2  0.3 0.2 0.2  0.4 0.2 0.2  0.5 0.2 0.2  0.6 0.2 0.2  0.7 0.2 0.2  0.8 0.2 0.2  0.9 0.2 0.2  1 0.2 0.2  0 0.3 0.2  0.1 0.3 0.2  0.2 0.3 0.2  0.3 0.3 0.2  0.4 0.3 0.2  0.5 0.3 0.2  0.6 0.3 0.2  0.7 0.3 0.2  0.8 0.3 0.2  0.9 0.3 0.2  1 0.3 0.2  0 0.4 0.2  0.1 0.4 0.2  0.2 0.4 0.2  0.3 0.4 0.2  0.4 0.4 0.2  0.5 0.4 0.2  0.6 0.4 0.2  0.7 0.4 0.2  0.8 0.4 0.2  0.9 0.4 0.2  1 0.4 0.2  0 0.5 0.2  0.1 0.5 0.2  0.2 0.5 0.2  0.3 0.5 0.2  0.4 0.5 0.2  0.5 0.5 0.2  0.6 0.5 0.2  0.7 0.5 0.2  0.8 0.5 0.2  0.9 0.5 0.2  1 0.5 0.2  0 0.6 0.2  0.1 0.6 0.2  0.2 0.6 0.2  0.3 0.6 0.2  0.4 0.6 0.2  0.5 0.6 0.2  0.6 0.6 0.2  0.7 0.6 0.2  0.8 0.6 0.2  0.9 0.6 0.2  1 0.6 0.2  0 0.7 0.2  0.1 0.7 0.2  0.2 0.7 0.2  0.3 0.7 0.2  0.4 0.7 0.2  0.5 0.7 0.2  0.6 0.7 0.2  0.7 0.7 0.2  0.8 0.7 0.2  0.9 0.7 0.2  1 0.7 0.2  0 0.8 0.2  0.1 0.8 0.2  0.2 0.8 0.2  0.3 0.8 0.2  0.4 0.8 0.2  0.5 0.8 0.2  0.6 0.8 0.2  0.7 0.8 0.2  0.8 0.8 0.2  0.9 0.8 0.2  1 0.8 0.2  0 0.9 0.2  0.1 0.9 0.2  0.2 0.9 0.2  0.3 0.9 0.2  0.4 0.9 0.2  0.5 0.9 0.2  0.6 0.9 0.2  0.7 0.9 0.2  0.8 0.9 0.2  0.9 0.9 0.2  1 0.9 0.2  0 1 0.2  0.1 1 0.2  0.2 1 0.2  0.3 1 0.2  0.4 1 0.2  0.5 1 0.2  0.6 1 0.2  0.7 1 0.2  0.8 1 0.2  0.9 1 0.2  1 1 0.2  0 0 0.3  0.1 0 0.3  0.2 0 0.3  0.3 0 0.3  0.4 0 0.3  0.5 0 0.3  0.6 0 0.3  0.7 0 0.3  0.8 0 0.3  0.9 0 0.3  1 0 0.3  0 0.1 0.3  0.1 0.1 0.3  0.2 0.1 0.3  0.3 0.1 0.3  0.4 0.1 0.3  0.5 0.1 0.3  0.6 0.1 0.3  0.7 0.1 0.3  0.8 0.1 0.3  0.9 0.1 0.3  1 0.1 0.3  0 0.2 0.3  0.1 0.2 0.3  0.2 0.2 0.3  0.3 0.2 0.3  0.4 0.2 0.3  0.5 0.2 0.3  0.6 0.2 0.3  0.7 0.2 0.3  0.8 0.2 0.3  0.9 0.2 0.3  1 0.2 0.3  0 0.3 0.3  0.1 0.3 0.3  0.2 0.3 0.3  0.3 0.3 0.3  0.4 0.3 0.3  0.5 0.3 0.3  0.6 0.3 0.3  0.7 0.3 0.3  0.8 0.3 0.3  0.9 0.3 0.3  1 0.3 0.3  0 0.4 0.3  0.1 0.4 0.3  0.2 0.4 0.3  0.3 0.4 0.3  0.4 0.4 0.3  0.5 0.4 0.3  0.6 0.4 0.3  0.7 0.4 0.3  0.8 0.4 0.3  0.9 0.4 0.3  1 0.4 0.3  0 0.5 0.3  0.1 0.5 0.3  0.2 0.5 0.3  0.3 0.5 0.3  0.4 0.5 0.3  0.5 0.5 0.3  0.6 0.5 0.3  0.7 0.5 0.3  0.8 0.5 0.3  0.9 0.5 0.3  1 0.5 0.3  0 0.6 0.3  0.1 0.6 0.3  0.2 0.6 0.3  0.3 0.6 0.3  0.4 0.6 0.3  0.5 0.6 0.3  0.6 0.6 0.3  0.7 0.6 0.3  0.8 0.6 0.3  0.9 0.6 0.3  1 0.6 0.3  0 0.7 0.3  0.1 0.7 0.3  0.2 0.7 0.3  0.3 0.7 0.3  0.4 0.7 0.3  0.5 0.7 0.3  0.6 0.7 0.3  0.7 0.7 0.3  0.8 0.7 0.3  0.9 0.7 0.3  1 0.7 0.3  0 0.8 0.3  0.1 0.8 0.3  0.2 0.8 0.3  0.3 0.8 0.3  0.4 0.8 0.3  0.5 0.8 0.3  0.6 0.8 0.3  0.7 0.8 0.3  0.8 0.8 0.3  0.9 0.8 0.3  1 0.8 0.3  0 0.9 0.3  0.1 0.9 0.3  0.2 0.9 0.3  0.3 0.9 0.3  0.4 0.9 0.3  0.5 0.9 0.3  0.6 0.9 0.3  0.7 0.9 0.3  0.8 0.9 0.3  0.9 0.9 0.3  1 0.9 0.3  0 1 0.3  0.1 1 0.3  0.2 1 0.3  0.3 1 0.3  0.4 1 0.3  0.5 1 0.3  0.6 1 0.3  0.7 1 0.3  0.8 1 0.3  0.9 1 0.3  1 1 0.3  </DataArray>
</Points>
<Cells>
[...]
<PointData  Scalars="u"> 
<DataArray  type="Float64"  Name="u"  format="ascii">0.0000000000000000e+00  1.6554574852714905e-02  1.0826822658929017e-02  5.2276421786257134e-03  2.1978766666481014e-03  8.4224337488568338e-04  2.9745026119996302e-04  9.5747606383224208e-05  2.6837010232200945e-05  5.5534411839005790e-06  0.0000000000000000e+00  0.0000000000000000e+00  1.5575414245985846e-02  1.0405429997680968e-02  5.0875480289742040e-03  2.1567264600412138e-03  8.3157534728221457e-04  2.9524615158992918e-04  9.5563487134570535e-05  2.6976969461616119e-05  5.6479368066484440e-06  0.0000000000000000e+00  0.0000000000000000e+00  1.5281354804795087e-02  1.0264511826279930e-02  5.0382067028435654e-03  2.1418643913892906e-03  8.2767113664764490e-04  2.9442702709643679e-04  9.5483835149233779e-05  2.7015724890361070e-05  5.6722468162890873e-06  0.0000000000000000e+00  0.0000000000000000e+00  1.5185377323551630e-02  1.0215107798242799e-02  5.0202619110106704e-03  2.1363729160867196e-03  8.2622430413683071e-04  2.9412455399451941e-04  9.5453174279155325e-05  2.7027312708315802e-05  5.6790306777981722e-06  0.0000000000000000e+00  0.0000000000000000e+00  1.5152871967594577e-02  1.0197671270131442e-02  5.0138186346635003e-03  2.1344042144234745e-03  8.2571535323456820e-04  2.9402287786879107e-04  9.5444599000873021e-05  2.7031632473888992e-05  5.6811679193732604e-06  0.0000000000000000e+00  0.0000000000000000e+00  1.5143915336657423e-02  1.0192974087225960e-02  5.0121764553563543e-03  2.1339475694819102e-03  8.2561569706193327e-04  2.9401058805974422e-04  9.5447354382893700e-05  2.7034143954946852e-05  5.6819780085294996e-06  0.0000000000000000e+00  0.0000000000000000e+00  1.5148791461789044e-02  1.0196277077462569e-02  5.0136921678834573e-03  2.1345139099526230e-03  8.2579772916577807e-04  2.9406109471224941e-04  9.5458960734340153e-05  2.7036149688792842e-05  5.6822008494224183e-06  0.0000000000000000e+00  0.0000000000000000e+00  1.5174542085806269e-02  1.0211622901910640e-02  5.0199162695385270e-03  2.1365885765597869e-03  8.2639054872286086e-04  2.9420170155631967e-04  9.5482404438724066e-05  2.7036774089891169e-05  5.6813322681652297e-06  0.0000000000000000e+00  0.0000000000000000e+00  1.5258178314373231e-02  1.0257906995293142e-02  5.0375412362757112e-03  2.1421682598169985e-03  8.2790931826632556e-04  2.9453710595968568e-04  9.5526136457168434e-05  2.7030186484621423e-05  5.6762632570085976e-06  0.0000000000000000e+00  0.0000000000000000e+00  1.5537023027537795e-02  1.0396618586118270e-02  5.0867517523664170e-03  2.1570394661915874e-03  8.3181318115042608e-04  2.9535456196122918e-04  9.5605977731721639e-05  2.6992824253037197e-05  5.6535653731182780e-06  0.0000000000000000e+00  0.0000000000000000e+00  1.6554574852714905e-02  1.0826822658929017e-02  5.2276421786257134e-03  2.1978766666481014e-03  8.4224337488568338e-04  2.9745026119996302e-04  9.5747606383224208e-05  2.6837010232200945e-05  5.5534411839005790e-06  0.0000000000000000e+00  0.0000000000000000e+00  1.6554574852714905e-02  1.0826822658929017e-02  5.2276421786257134e-03  2.1978766666481014e-03  8.4224337488568338e-04  2.9745026119996302e-04  9.5747606383224208e-05  2.6837010232200945e-05  5.5534411839005790e-06  0.0000000000000000e+00  0.0000000000000000e+00  1.6321070178140624e-02  1.0718462824011343e-02  5.1903952192805369e-03  2.1867531636159186e-03  8.3932598153408625e-04  2.9683712433098896e-04  9.5690033176085157e-05  2.6870008376135738e-05  5.5746976065901162e-06  0.0000000000000000e+00  0.0000000000000000e+00  1.6197521902369300e-02  1.0664166876637977e-02  5.1722650196470953e-03  2.1814819967049350e-03  8.3799812901958338e-04  2.9658271840341503e-04  9.5678956262827794e-05  2.6890166536107999e-05  5.5845301825095421e-06  0.0000000000000000e+00  0.0000000000000000e+00  1.6145902660025763e-02  1.0640734290788819e-02  5.1644382079121540e-03  2.1792481473752990e-03  8.3745759261425997e-04  2.9648904411979559e-04  9.5679750418762709e-05  2.6899648498340339e-05  5.5883388861298071e-06  0.0000000000000000e+00  0.0000000000000000e+00  1.6125738425258589e-02  1.0631302217562970e-02  5.1613113561145034e-03  2.1783893694470365e-03  8.3726647529548030e-04  2.9646337039382017e-04  9.5684128467064990e-05  2.6904295080197715e-05  5.5898644836690447e-06  0.0000000000000000e+00  0.0000000000000000e+00  1.6119303853957878e-02  1.0628469730677157e-02  5.1604904143213040e-03  2.1782167158854154e-03  8.3724992151505066e-04  2.9647141537607016e-04  9.5690513781274022e-05  2.6906980526773727e-05  5.5905360480044431e-06  0.0000000000000000e+00  0.0000000000000000e+00  1.6121162220805157e-02  1.0630090806697395e-02  5.1613356732482466e-03  2.1785594710102352e-03  8.3736780824419487e-04  2.9650651032023847e-04  9.5699288314960224e-05  2.6908656985806460e-05  5.5907323259593198e-06  0.0000000000000000e+00  0.0000000000000000e+00  1.6133763739775164e-02  1.0637765348351856e-02  5.1644829345488105e-03  2.1796171340182284e-03  8.3767288164429048e-04  2.9657975627546754e-04  9.5711603016707984e-05  2.6908855050161677e-05  5.5901733234307749e-06  0.0000000000000000e+00  0.0000000000000000e+00  1.6171581498787391e-02  1.0658692346070553e-02  5.1723872368239195e-03  2.1820928874559569e-03  8.3833841473698921e-04  2.9672359482331212e-04  9.5728505937476513e-05  2.6904666307386136e-05  5.5874410343132206e-06  0.0000000000000000e+00  0.0000000000000000e+00  1.6278493286044828e-02  1.0711395221682683e-02  5.1907615787231704e-03  2.1875283125281889e-03  8.3972603920035396e-04  2.9699883253778457e-04  9.5747332576185765e-05  2.6887283866428073e-05  5.5782318701022572e-06  0.0000000000000000e+00  0.0000000000000000e+00  1.6554574852714905e-02  1.0826822658929017e-02  5.2276421786257134e-03  2.1978766666481014e-03  8.4224337488568338e-04  2.9745026119996302e-04  9.5747606383224208e-05  2.6837010232200945e-05  5.5534411839005790e-06  0.0000000000000000e+00  0.0000000000000000e+00  1.6554574852714905e-02  1.0826822658929017e-02  5.2276421786257134e-03  2.1978766666481014e-03  8.4224337488568338e-04  2.9745026119996302e-04  9.5747606383224208e-05  2.6837010232200945e-05  5.5534411839005790e-06  0.0000000000000000e+00  0.0000000000000000e+00  1.6811291353205228e-02  1.0951076396429423e-02  5.2710978764082010e-03  2.2109085965737732e-03  8.4564216389923475e-04  2.9815325477926475e-04  9.5811871379379644e-05  2.6802942561853321e-05  5.5343635522976336e-06  0.0000000000000000e+00  0.0000000000000000e+00  1.6908224509238252e-02  1.1003425400258234e-02  5.2905922529631628e-03  2.2170019132767634e-03  8.4729322619009426e-04  2.9851858129725762e-04  9.5859798125022010e-05  2.6795269785417690e-05  5.5282476224793021e-06  0.0000000000000000e+00  0.0000000000000000e+00  1.6936981989723810e-02  1.1021092765645800e-02  5.2977013306552767e-03  2.2193537413044123e-03  8.4796685193464405e-04  2.9868131329926042e-04  9.5888334301237287e-05  2.6796395764695761e-05  5.5271066679600751e-06  0.0000000000000000e+00  0.0000000000000000e+00  1.6943776380172602e-02  1.1026150981844049e-02  5.2999899850631844e-03  2.2201834908037415e-03  8.4822705589285925e-04  2.9875233918699170e-04  9.5904345948801150e-05  2.6798907443437260e-05  5.5272305198399632e-06  0.0000000000000000e+00  0.0000000000000000e+00  1.6944284629408422e-02  1.1027103060410418e-02  5.3005768645477281e-03  2.2204428645988647e-03  8.4832301712806492e-04  2.9878334725592405e-04  9.5912987976704868e-05  2.6800840137817236e-05  5.5275098309469078e-06  0.0000000000000000e+00  0.0000000000000000e+00  1.6941895265213041e-02  1.1026060941309585e-02  5.3002841979814036e-03  2.2203892109810986e-03  8.4832297167375652e-04  2.9878879293596990e-04  9.5915917703878973e-05  2.6801774855880789e-05  5.5276715182772303e-06  0.0000000000000000e+00  0.0000000000000000e+00  1.6932946620937573e-02  1.1021110135371168e-02  5.2983824578824602e-03  2.2197871116203085e-03  8.4816151178774201e-04  2.9875396414931509e-04  9.5910994495339495e-05  2.6801710339527772e-05  5.5277468717343139e-06  0.0000000000000000e+00  0.0000000000000000e+00  1.6902226083396480e-02  1.1004086291555987e-02  5.2918059393138291e-03  2.2176737969715377e-03  8.4757870912899162e-04  2.9862264734090784e-04  9.5891630693241807e-05  2.6802010493011399e-05  5.5284146205750519e-06  0.0000000000000000e+00  0.0000000000000000e+00  1.6806059643947994e-02  1.0952939815605380e-02  5.2727093361776764e-03  2.2116768729530116e-03  8.4594963417251715e-04  2.9826338865895338e-04  9.5845583295785399e-05  2.6809378763811829e-05  5.5329731119373832e-06  0.0000000000000000e+00  0.0000000000000000e+00  1.6554574852714905e-02  1.0826822658929017e-02  5.2276421786257134e-03  2.1978766666481014e-03  8.4224337488568338e-04  2.9745026119996302e-04  9.5747606383224208e-05  2.6837010232200945e-05  5.5534411839005790e-06  0.0000000000000000e+00  0.0000000000000000e+00  1.6554574852714905e-02  1.0826822658929017e-02  5.2276421786257134e-03  2.1978766666481014e-03  8.4224337488568338e-04  2.9745026119996302e-04  9.5747606383224208e-05  2.6837010232200945e-05  5.5534411839005790e-06  0.0000000000000000e+00  0.0000000000000000e+00  1.7710993932245747e-02  1.1306792214235070e-02  5.3839359406428495e-03  2.2431732088207287e-03  8.5383729923558019e-04  2.9979019797912824e-04  9.5911008527711818e-05  2.6665535298672115e-05  5.4412341732287165e-06  0.0000000000000000e+00  0.0000000000000000e+00  1.8022845836928203e-02  1.1449058861019896e-02  5.4324886067472896e-03  2.2575804519473111e-03  8.5757402942949871e-04  3.0055768774903488e-04  9.5977043298155757e-05  2.6623772862343330e-05  5.4162938699015004e-06  0.0000000000000000e+00  0.0000000000000000e+00  1.8110835643588660e-02  1.1492738150287667e-02  5.4481572854115628e-03  2.2623821057475768e-03  8.5885383289176827e-04  3.0083308175731324e-04  9.6009228154407132e-05  2.6615653651088465e-05  5.4108780116972065e-06  0.0000000000000000e+00  0.0000000000000000e+00  1.8135130234194663e-02  1.1505858879883602e-02  5.4531496572569598e-03  2.2639866643908786e-03  8.5930348037594785e-04  3.0093830464701318e-04  9.6026126542587313e-05  2.6615538153753644e-05  5.4099323234450651e-06  0.0000000000000000e+00  0.0000000000000000e+00  1.8140133542351722e-02  1.1508878147236891e-02  5.4544080292551938e-03  2.2644282986007164e-03  8.5944018986287775e-04  3.0097512836789350e-04  9.6034089775740467e-05  2.6616605987534760e-05  5.4099265766223502e-06  0.0000000000000000e+00  0.0000000000000000e+00  1.8135969707136070e-02  1.1506617971452790e-02  5.4535747779351374e-03  2.2641821506834215e-03  8.5938158738191588e-04  3.0096540326035094e-04  9.6033905498767961e-05  2.6617149770623139e-05  5.4100937713027199e-06  0.0000000000000000e+00  0.0000000000000000e+00  1.8115453651846747e-02  1.1495054877278577e-02  5.4491012446218484e-03  2.2627519747415209e-03  8.5899053585158913e-04  3.0087812293923711e-04  9.6021143111801009e-05  2.6617482321048104e-05  5.4107637809382510e-06  0.0000000000000000e+00  0.0000000000000000e+00  1.8039530031850725e-02  1.1454514992162851e-02  5.4339889472321953e-03  2.2580217804507880e-03  8.5771130216143220e-04  3.0059705224360196e-04  9.5984548887612426e-05  2.6622715217622303e-05  5.4147970228158247e-06  0.0000000000000000e+00  0.0000000000000000e+00  1.7751092734806646e-02  1.1315679793359673e-02  5.3854616755499964e-03  2.2434168196041760e-03  8.5387138541954250e-04  2.9978847962812085e-04  9.5903541163648500e-05  2.6658703779455647e-05  5.4369865626326472e-06  0.0000000000000000e+00  0.0000000000000000e+00  1.6554574852714905e-02  1.0826822658929017e-02  5.2276421786257134e-03  2.1978766666481014e-03  8.4224337488568338e-04  2.9745026119996302e-04  9.5747606383224208e-05  2.6837010232200945e-05  5.5534411839005790e-06  0.0000000000000000e+00  </DataArray> 
</PointData> 
</Piece>
</UnstructuredGrid>
</VTKFile>