<?xml version="1.0"?>
<VTKFile type="UnstructuredGrid"  version="0.1"  >
<UnstructuredGrid>
<Piece  NumberOfPoints="484" NumberOfCells="1800">
<Points>
<DataArray  type="Float64"  NumberOfComponents="3"  format="ascii">0 0 0  0.1 0 0  0.2 0 0  0.3 0 0  0.4 0 0  0.5 0 0  0.6 0 0  0.7 0 0  0.8 0 0  0.9 0 0  1 0 0  0 0.1 0  0.1 0.1 0  0.2 0.1 0  0.3 0.1 0  0.4 0.1 0  0.5 0.1 0  0.6 0.1 0  0.7 0.1 0  0.8 0.1 0  0.9 0.1 0  1 0.1 0  0 0.2 0  0.1 0.2 0  0.2 0.2 0  0.3 0.2 0  0.4 0.2 0  0.5 0.2 0  0.6 0.2 0  0.7 0.2 0  0.8 0.2 0  0.9 0.2 0  1 0.2 0  0 0.3 0  0.1 0.3 0  0.2 0.3 0  0.3 0.3 0  0.4 0.3 0  0.5 0.3 0  0.6 0.3 0  0.7 0.3 0  0.8 0.3 0  0.9 0.3 0  1 0.3 0  0 0.4 0  0.1 0.4 0  0.2 0.4 0  0.3 0.4 0  0.4 0.4 0  0.5 0.4 0  0.6 0.4 0  0.7 0.4 0  0.8 0.4 0  0.9 0.4 0  1 0.4 0  0 0.5 0  0.1 0.5 0  0.2 0.5 0  0.3 0.5 0  0.4 0.5 0  0.5 0.5 0  0.6 0.5 0  0.7 0.5 0  0.8 0.5 0  0.9 0.5 0  1 0.5 0  0 0.6 0  0.1 0.6 0  0.2 0.6 0  0.3 0.6 0  0.4 0.6 0  0.5 0.6 0  0.6 0.6 0  0.7 0.6 0  0.8 0.6 0  0.9 0.6 0  1 0.6 0  0 0.7 0  0.1 0.7 0  0.2 0.7 0  0.3 0.7 0  0.4 0.7 0  0.5 0.7 0  0.6 0.7 0  0.7 0.7 0  0.8 0.7 0  0.9 0.7 0  1 0.7 0  0 0.8 0  0.1 0.8 0  0.2 0.8 0  0.3 0.8 0  0.4 0.8 0  0.5 0.8 0  0.6 0.8 0  0.7 0.8 0  0.8 0.8 0  0.9 0.8 0  1 0.8 0  0 0.9 0  0.1 0.9 0  0.2 0.9 0  0.3 0.9 0  0.4 0.9 0  0.5 0.9 0  0.6 0.9 0  0.7 0.9 0  0.8 0.9 0  0.9 0.9 0  1 0.9 0  0 1 0  0.1 1 0  0.2 1 0  0.3 1 0  0.4 1 0  0.5 1 0  0.6 1 0  0.7 1 0  0.8 1 0  0.9 1 0  1 1 0  0 0 0.09999999999999999  0.1 0 0.09999999999999999  0.2 0 0.09999999999999999  0.3 0 0.09999999999999999  0.4 0 0.09999999999999999  0.5 0 0.09999999999999999  0.6 0 0.09999999999999999  0.7 0 0.09999999999999999  0.8 0 0.09999999999999999  0.9 0 0.09999999999999999  1 0 0.09999999999999999  0 0.1 0.09999999999999999  0.1 0.1 0.09999999999999999  0.2 0.1 0.09999999999999999  0.3 0.1 0.09999999999999999  0.4 0.1 0.09999999999999999  0.5 0.1 0.09999999999999999  0.6 0.1 0.09999999999999999  0.7 0.1 0.09999999999999999  0.8 0.1 0.09999999999999999  0.9 0.1 0.09999999999999999  1 0.1 0.09999999999999999  0 0.2 0.09999999999999999  0.1 0.2 0.09999999999999999  0.2 0.2 0.09999999999999999  0.3 0.2 0.09999999999999999  0.4 0.2 0.09999999999999999  0.5 0.2 0.09999999999999999  0.6 0.2 0.09999999999999999  0.7 0.2 0.09999999999999999  0.8 0.2 0.09999999999999999  0.9 0.2 0.09999999999999999  1 0.2 0.09999999999999999  0 0.3 0.09999999999999999  0.1 0.3 0.09999999999999999  0.2 0.3 0.09999999999999999  0.3 0.3 0.09999999999999999  0.4 0.3 0.09999999999999999  0.5 0.3 0.09999999999999999  0.6 0.3 0.09999999999999999  0.7 0.3 0.09999999999999999  0.8 0.3 0.09999999999999999  0.9 0.3 0.09999999999999999  1 0.3 0.09999999999999999  0 0.4 0.09999999999999999  0.1 0.4 0.09999999999999999  0.2 0.4 0.09999999999999999  0.3 0.4 0.09999999999999999  0.4 0.4 0.09999999999999999  0.5 0.4 0.09999999999999999  0.6 0.4 0.09999999999999999  0.7 0.4 0.09999999999999999  0.8 0.4 0.09999999999999999  0.9 0.4 0.09999999999999999  1 0.4 0.09999999999999999  0 0.5 0.09999999999999999  0.1 0.5 0.09999999999999999  0.2 0.5 0.09999999999999999  0.3 0.5 0.09999999999999999  0.4 0.5 0.09999999999999999  0.5 0.5 0.09999999999999999  0.6 0.5 0.09999999999999999  0.7 0.5 0.09999999999999999  0.8 0.5 0.09999999999999999  0.9 0.5 0.09999999999999999  1 0.5 0.09999999999999999  0 0.6 0.09999999999999999  0.1 0.6 0.09999999999999999  0.2 0.6 0.09999999999999999  0.3 0.6 0.09999999999999999  0.4 0.6 0.09999999999999999  0.5 0.6 0.09999999999999999  0.6 0.6 0.09999999999999999  0.7 0.6 0.09999999999999999  0.8 0.6 0.09999999999999999  0.9 0.6 0.09999999999999999  1 0.6 0.09999999999999999  0 0.7 0.09999999999999999  0.1 0.7 0.09999999999999999  0.2 0.7 0.09999999999999999  0.3 0.7 0.09999999999999999  0.4 0.7 0.09999999999999999  0.5 0.7 0.09999999999999999  0.6 0.7 0.09999999999999999  0.7 0.7 0.09999999999999999  0.8 0.7 0.09999999999999999  0.9 0.7 0.09999999999999999  1 0.7 0.09999999999999999  0 0.8 0.09999999999999999  0.1 0.8 0.09999999999999999  0.2 0.8 0.09999999999999999  0.3 0.8 0.09999999999999999  0.4 0.8 0.09999999999999999  0.5 0.8 0.09999999999999999  0.6 0.8 0.09999999999999999  0.7 0.8 0.09999999999999999  0.8 0.8 0.09999999999999999  0.9 0.8 0.09999999999999999  1 0.8 0.09999999999999999  0 0.9 0.09999999999999999  0.1 0.9 0.09999999999999999  0.2 0.9 0.09999999999999999  0.3 0.9 0.09999999999999999  0.4 0.9 0.09999999999999999  0.5 0.9 0.09999999999999999  0.6 0.9 0.09999999999999999  0.7 0.9 0.09999999999999999  0.8 0.9 0.09999999999999999  0.9 0.9 0.09999999999999999  1 0.9 0.09999999999999999  0 1 0.09999999999999999  0.1 1 0.09999999999999999  0.2 1 0.09999999999999999  0.3 1 0.09999999999999999  0.4 1 0.09999999999999999  0.5 1 0.09999999999999999  0.6 1 0.09999999999999999  0.7 1 0.09999999999999999  0.8 1 0.09999999999999999  0.9 1 0.09999999999999999  1 1 0.09999999999999999  0 0 0.2  0.1 0 0.2  0.2 0 0.2  0.3 0 0.2  0.4 0 0.2  0.5 0 0.2  0.6 0 0.2  0.7 0 0.2  0.8 0 0.2  0.9 0 0.2  1 0 0.2  0 0.1 0.2  0.1 0.1 0.2  0.2 0.1 0.2  0.3 0.1 0.2  0.4 0.1 0.2  0.5 0.1 0.2  0.6 0.1 0.2  0.7 0.1 0.2  0.8 0.1 0.2  0.9 0.1 0.2  1 0.1 0.2  0 0.2 0.2  0.1 0.2 0.2  0.2 0.2 0.2  0.3 0.2 0.2  0.4 0.2 0.2  0.5 0.2 0.2  0.6 0.2 0.2  0.7 0.2 0.2  0.8 0.2 0.2  0.9 0.2 0.2  1 0.2 0.2  0 0.3 0.2  0.1 0.3 0.2  0.2 0.3 0.2  0.3 0.3 0.2  0.4 0.3 0.2  0.5 0.3 0.2  0.6 0.3 0.2  0.7 0.3 0.2  0.8 0.3 0.2  0.9 0.3 0.2  1 0.3 0.2  0 0.4 0.2  0.1 0.4 0.2  0.2 0.4 0.2  0.3 0.4 0.2  0.4 0.4 0.2  0.5 0.4 0.2  0.6 0.4 0.2  0.7 0.4 0.2  0.8 0.4 0.2  0.9 0.4 0.2  1 0.4 0.2  0 0.5 0.2  0.1 0.5 0.2  0.2 0.5 0.2  0.3 0.5 0.2  0.4 0.5 0.2  0.5 0.5 0.2  0.6 0.5 0.2  0.7 0.5 0.2  0.8 0.5 0.2  0.9 0.5 0.2  1 0.5 0.2  0 0.6 0.2  0.1 0.6 0.2  0.2 0.6 0.2  0.3 0.6 0.2  0.4 0.6 0.2  0.5 0.6 0.2  0.6 0.6 0.2  0.7 0.6 0.2  0.8 0.6 0.2  0.9 0.6 0.2  1 0.6 0.2  0 0.7 0.2  0.1 0.7 0.2  0.2 0.7 0.2  0.3 0.7 0.2  0.4 0.7 0.2  0.5 0.7 0.2  0.6 0.7 0.2  0.7 0.7 0.2  0.8 0.7 0.2  0.9 0.7 0.2  1 0.7 0.2  0 0.8 0.2  0.1 0.8 0.2  0.2 0.8 0.2  0.3 0.8 0.2  0.4 0.8 0.2  0.5 0.8 0.2  0.6 0.8 0.2  0.7 0.8 0.2  0.8 0.8 0.2  0.9 0.8 0.2  1 0.8 0.2  0 0.9 0.2  0.1 0.9 0.2  0.2 0.9 0.2  0.3 0.9 0.2  0.4 0.9 0.2  0.5 0.9 0.2  0.6 0.9 0.2  0.7 0.9 0.2  0.8 0.9 0.2  0.9 0.9 0.2  1 0.9 0.2  0 1 0.2  0.1 1 0.2  0.2 1 0.2  0.3 1 0.2  0.4 1 0.2  0.5 1 0.2  0.6 1 0.2  0.7 1 0.2  0.8 1 0.2  0.9 1 0.2  1 1 0.2  0 0 0.3  0.1 0 0.3  0.2 0 0.3  0.3 0 0.3  0.4 0 0.3  0.5 0 0.3  0.6 0 0.3  0.7 0 0.3  0.8 0 0.3  0.9 0 0.3  1 0 0.3  0 0.1 0.3  0.1 0.1 0.3  0.2 0.1 0.3  0.3 0.1 0.3  0.4 0.1 0.3  0.5 0.1 0.3  0.6 0.1 0.3  0.7 0.1 0.3  0.8 0.1 0.3  0.9 0.1 0.3  1 0.1 0.3  0 0.2 0.3  0.1 0.2 0.3  0.2 0.2 0.3  0.3 0.2 0.3  0.4 0.2 0.3  0.5 0.2 0.3  0.6 0.2 0.3  0.7 0.2 0.3  0.8 0.2 0.3  0.9 0.2 0.3  1 0.2 0.3  0 0.3 0.3  0.1 0.3 0.3  0.2 0.3 0.3  0.3 0.3 0.3  0.4 0.3 0.3  0.5 0.3 0.3  0.6 0.3 0.3  0.7 0.3 0.3  0.8 0.3 0.3  0.9 0.3 0.3  1 0.3 0.3  0 0.4 0.3  0.1 0.4 0.3  0.2 0.4 0.3  0.3 0.4 0.3  0.4 0.4 0.3  0.5 0.4 0.3  0.6 0.4 0.3  0.7 0.4 0.3  0.8 0.4 0.3  0.9 0.4 0.3  1 0.4 0.3  0 0.5 0.3  0.1 0.5 0.3  0.2 0.5 0.3  0.3 0.5 0.3  0.4 0.5 0.3  0.5 0.5 0.3  0.6 0.5 0.3  0.7 0.5 0.3  0.8 0.5 0.3  0.9 0.5 0.3  1 0.5 0.3  0 0.6 0.3  0.1 0.6 0.3  0.2 0.6 0.3  0.3 0.6 0.3  0.4 0.6 0.3  0.5 0.6 0.3  0.6 0.6 0.3  0.7 0.6 0.3  0.8 0.6 0.3  0.9 0.6 0.3  1 0.6 0.3  0 0.7 0.3  0.1 0.7 0.3  0.2 0.7 0.3  0.3 0.7 0.3  0.4 0.7 0.3  0.5 0.7 0.3  0.6 0.7 0.3  0.7 0.7 0.3  0.8 0.7 0.3  0.9 0.7 0.3  1 0.7 0.3  0 0.8 0.3  0.1 0.8 0.3  0.2 0.8 0.3  0.3 0.8 0.3  0.4 0.8 0.3  0.5 0.8 0.3  0.6 0.8 0.3  0.7 0.8 0.3  0.8 0.8 0.3  0.9 0.8 0.3  1 0.8 0.3  0 0.9 0.3  0.1 0.9 0.3  0.2 0.9 0.3  0.3 0.9 0.3  0.4 0.9 0.3  0.5 0.9 0.3  0.6 0.9 0.3  0.7 0.9 0.3  0.8 0.9 0.3  0.9 0.9 0.3  1 0.9 0.3  0 1 0.3  0.1 1 0.3  0.2 1 0.3  0.3 1 0.3  0.4 1 0.3  0.5 1 0.3  0.6 1 0.3  0.7 1 0.3  0.8 1 0.3  0.9 1 0.3  1 1 0.3  </DataArray>
</Points>
<Cells>
[...]
<PointData  Scalars="u"> 
<DataArray  type="Float64"  Name="u"  format="ascii">0.0000000000000000e+00  1.6555297758898864e-02  1.0827295445280990e-02  5.2278704596230748e-03  2.1979726436603783e-03  8.4228015402072851e-04  2.9746325027610402e-04  9.5751787495537379e-05  2.6838182152399998e-05  5.5536836919087868e-06  0.0000000000000000e+00  0.0000000000000000e+00  1.6526682696942546e-02  1.0813949536269553e-02  5.2241101453007243e-03  2.1969743982978261e-03  8.4202324088121006e-04  2.9737153703472723e-04  9.5727958433728324e-05  2.6832291829348955e-05  5.5528108271795998e-06  0.0000000000000000e+00  0.0000000000000000e+00  1.6502154209694381e-02  1.0803134277191749e-02  5.2209637256097653e-03  2.1960959102741507e-03  8.4176916121158415e-04  2.9730760792395214e-04  9.5713082706810960e-05  2.6829611254109083e-05  5.5516786666211962e-06  0.0000000000000000e+00  0.0000000000000000e+00  1.6478310809771159e-02  1.0796255662645960e-02  5.2188536477749247e-03  2.1954748498963254e-03  8.4157856461571383e-04  2.9727454440698953e-04  9.5713707165395425e-05  2.6828815568007932e-05  5.5521028238194819e-06  0.0000000000000000e+00  0.0000000000000000e+00  1.6462931932529661e-02  1.0793268984973098e-02  5.2177875278679479e-03  2.1950872628412970e-03  8.4149084779730921e-04  2.9726554021948385e-04  9.5700098078728443e-05  2.6826794869697884e-05  5.5517505643414167e-06  0.0000000000000000e+00  0.0000000000000000e+00  1.6457307782523391e-02  1.0792521620193177e-02  5.2174770641005425e-03  2.1949752677823601e-03  8.4147577156728278e-04  2.9726332727578100e-04  9.5700323172593485e-05  2.6826425306171761e-05  5.5515413392562735e-06  0.0000000000000000e+00  0.0000000000000000e+00  1.6462931932529696e-02  1.0793268984973100e-02  5.2177875278679540e-03  2.1950872628413473e-03  8.4149084778656130e-04  2.9726554100759187e-04  9.5700079746651918e-05  2.6826897325146615e-05  5.5518175238529707e-06  0.0000000000000000e+00  0.0000000000000000e+00  1.6478310809771218e-02  1.0796255662645969e-02  5.2188536477749230e-03  2.1954748498962950e-03  8.4157856462234080e-04  2.9727454392466419e-04  9.5713718022635703e-05  2.6828767552729323e-05  5.5519373030120995e-06  0.0000000000000000e+00  0.0000000000000000e+00  1.6502154209694427e-02  1.0803134277191737e-02  5.2209637256097601e-03  2.1960959102741155e-03  8.4176916121895780e-04  2.9730760732365509e-04  9.5713100410451014e-05  2.6829425610294980e-05  5.5522825065378194e-06  0.0000000000000000e+00  0.0000000000000000e+00  1.6526682696942484e-02  1.0813949536269551e-02  5.2241101453007208e-03  2.1969743982978747e-03  8.4202324086984361e-04  2.9737153792157528e-04  9.5727934429281416e-05  2.6832503916511247e-05  5.5523039084185710e-06  0.0000000000000000e+00  0.0000000000000000e+00  1.6555297758898864e-02  1.0827295445280990e-02  5.2278704596230748e-03  2.1979726436603783e-03  8.4228015402072851e-04  2.9746325027610402e-04  9.5751787495537379e-05  2.6838182152399998e-05  5.5536836919087868e-06  0.0000000000000000e+00  0.0000000000000000e+00  1.6555297758898864e-02  1.0827295445280990e-02  5.2278704596230748e-03  2.1979726436603783e-03  8.4228015402072851e-04  2.9746325027610402e-04  9.5751787495537379e-05  2.6838182152399998e-05  5.5536836919087868e-06  0.0000000000000000e+00  0.0000000000000000e+00  1.6529466074948283e-02  1.0815660504831660e-02  5.2243324412106374e-03  2.1970545186250070e-03  8.4202034823358625e-04  2.9737944890964742e-04  9.5727280615338258e-05  2.6833167641767325e-05  5.5527438916395254e-06  0.0000000000000000e+00  0.0000000000000000e+00  1.6509545918453584e-02  1.0806238363341021e-02  5.2213558484148432e-03  2.1962538841799237e-03  8.4183148990067799e-04  2.9731994029036764e-04  9.5713792403945706e-05  2.6829800971641342e-05  5.5525768715082702e-06  0.0000000000000000e+00  0.0000000000000000e+00  1.6494207787993858e-02  1.0800013507880022e-02  5.2192891355482300e-03  2.1956942289180384e-03  8.4167690663800563e-04  2.9728650407977685e-04  9.5712218754399843e-05  2.6828065356726143e-05  5.5523210227813680e-06  0.0000000000000000e+00  0.0000000000000000e+00  1.6482852970351753e-02  1.0796706245612847e-02  5.2181602841953455e-03  2.1953926113263710e-03  8.4151177702422673e-04  2.9726978622488464e-04  9.5702585842728468e-05  2.6826552727164623e-05  5.5512872013510741e-06  0.0000000000000000e+00  0.0000000000000000e+00  1.6478135095214907e-02  1.0795664890998693e-02  5.2178056765065312e-03  2.1953105979987740e-03  8.4142958083609557e-04  2.9725952986328397e-04  9.5701125223278670e-05  2.6827384288209709e-05  5.5511935575372685e-06  0.0000000000000000e+00  0.0000000000000000e+00  1.6482852970351753e-02  1.0796706245612872e-02  5.2181602841953542e-03  2.1953926113251775e-03  8.4151177716237262e-04  2.9726978048696820e-04  9.5702668614204312e-05  2.6826179355943932e-05  5.5516440202344142e-06  0.0000000000000000e+00  0.0000000000000000e+00  1.6494207787993868e-02  1.0800013507880020e-02  5.2192891355482274e-03  2.1956942289188225e-03  8.4167690654337332e-04  2.9728650831012464e-04  9.5712150214005915e-05  2.6828428940948198e-05  5.5519194736985734e-06  0.0000000000000000e+00  0.0000000000000000e+00  1.6509545918453623e-02  1.0806238363341011e-02  5.2213558484148354e-03  2.1962538841806198e-03  8.4183148982420759e-04  2.9731994322535561e-04  9.5713755122859963e-05  2.6829950424233184e-05  5.5523195352044217e-06  0.0000000000000000e+00  0.0000000000000000e+00  1.6529466074948290e-02  1.0815660504831660e-02  5.2243324412106331e-03  2.1970545186238565e-03  8.4202034836325412e-04  2.9737944374800868e-04  9.5727349842247470e-05  2.6832890767852390e-05  5.5529927321158787e-06  0.0000000000000000e+00  0.0000000000000000e+00  1.6555297758898864e-02  1.0827295445280990e-02  5.2278704596230748e-03  2.1979726436603783e-03  8.4228015402072851e-04  2.9746325027610402e-04  9.5751787495537379e-05  2.6838182152399998e-05  5.5536836919087868e-06  0.0000000000000000e+00  0.0000000000000000e+00  1.6555297758898864e-02  1.0827295445280990e-02  5.2278704596230748e-03  2.1979726436603783e-03  8.4228015402072851e-04  2.9746325027610402e-04  9.5751787495537379e-05  2.6838182152399998e-05  5.5536836919087868e-06  0.0000000000000000e+00  0.0000000000000000e+00  1.6529466074948290e-02  1.0815660504831676e-02  5.2243324412106348e-03  2.1970545186254472e-03  8.4202034815955519e-04  2.9737945333027481e-04  9.5727192889453067e-05  2.6833623800070974e-05  5.5528713618915754e-06  0.0000000000000000e+00  0.0000000000000000e+00  1.6509545918453609e-02  1.0806238363341027e-02  5.2213558484148492e-03  2.1962538841793005e-03  8.4183149000116673e-04  2.9731993450438343e-04  9.5713903427351778e-05  2.6829256456595448e-05  5.5522647161468506e-06  0.0000000000000000e+00  0.0000000000000000e+00  1.6494207787993841e-02  1.0800013507880010e-02  5.2192891355482291e-03  2.1956942289182517e-03  8.4167690660129737e-04  2.9728650633826267e-04  9.5712171779360845e-05  2.6828339839054305e-05  5.5522101181815078e-06  0.0000000000000000e+00  0.0000000000000000e+00  1.6482852970351739e-02  1.0796706245612828e-02  5.2181602841953395e-03  2.1953926113266963e-03  8.4151177697416998e-04  2.9726978891452991e-04  9.5702540590005146e-05  2.6826685186425271e-05  5.5519223383314513e-06  0.0000000000000000e+00  0.0000000000000000e+00  1.6478135095214966e-02  1.0795664890998702e-02  5.2178056765065295e-03  2.1953105979982471e-03  8.4142958092414709e-04  2.9725952465581290e-04  9.5701227853921763e-05  2.6826842473354703e-05  5.5511734976630813e-06  0.0000000000000000e+00  0.0000000000000000e+00  1.6482852970351812e-02  1.0796706245612867e-02  5.2181602841953533e-03  2.1953926113255817e-03  8.4151177709617872e-04  2.9726978439800062e-04  9.5702588394347066e-05  2.6826674949221225e-05  5.5511726963010283e-06  0.0000000000000000e+00  0.0000000000000000e+00  1.6494207787993910e-02  1.0800013507880022e-02  5.2192891355482343e-03  2.1956942289189370e-03  8.4167690652580535e-04  2.9728650925484219e-04  9.5712134292891024e-05  2.6828483741674147e-05  5.5520547554801534e-06  0.0000000000000000e+00  0.0000000000000000e+00  1.6509545918453654e-02  1.0806238363341023e-02  5.2213558484148397e-03  2.1962538841800577e-03  8.4183148991220382e-04  2.9731993828842470e-04  9.5713848854795872e-05  2.6829454388955712e-05  5.5524628524077821e-06  0.0000000000000000e+00  0.0000000000000000e+00  1.6529466074948301e-02  1.0815660504831673e-02  5.2243324412106357e-03  2.1970545186242663e-03  8.4202034829510399e-04  2.9737944772378720e-04  9.5727272638911745e-05  2.6833296307429312e-05  5.5529519525168258e-06  0.0000000000000000e+00  0.0000000000000000e+00  1.6555297758898864e-02  1.0827295445280990e-02  5.2278704596230748e-03  2.1979726436603783e-03  8.4228015402072851e-04  2.9746325027610402e-04  9.5751787495537379e-05  2.6838182152399998e-05  5.5536836919087868e-06  0.0000000000000000e+00  0.0000000000000000e+00  1.6555297758898864e-02  1.0827295445280990e-02  5.2278704596230748e-03  2.1979726436603783e-03  8.4228015402072851e-04  2.9746325027610402e-04  9.5751787495537379e-05  2.6838182152399998e-05  5.5536836919087868e-06  0.0000000000000000e+00  0.0000000000000000e+00  1.6526682696942508e-02  1.0813949536269549e-02  5.2241101453007208e-03  2.1969743982978122e-03  8.4202324088416343e-04  2.9737153673005487e-04  9.5727968011486683e-05  2.6832229735060341e-05  5.5526167961210109e-06  0.0000000000000000e+00  0.0000000000000000e+00  1.6502154209694427e-02  1.0803134277191748e-02  5.2209637256097653e-03  2.1960959102741615e-03  8.4176916120743046e-04  2.9730760831890547e-04  9.5713071461733920e-05  2.6829662775321821e-05  5.5520769136868050e-06  0.0000000000000000e+00  0.0000000000000000e+00  1.6478310809771166e-02  1.0796255662645920e-02  5.2188536477749264e-03  2.1954748498963206e-03  8.4157856461650139e-04  2.9727454434536266e-04  9.5713707649762664e-05  2.6828853918966154e-05  5.5517006655317663e-06  0.0000000000000000e+00  0.0000000000000000e+00  1.6462931932529748e-02  1.0793268984973098e-02  5.2177875278679436e-03  2.1950872628412835e-03  8.4149084780036775e-04  2.9726553989943170e-04  9.5700109290637977e-05  2.6826681565622896e-05  5.5519316919345450e-06  0.0000000000000000e+00  0.0000000000000000e+00  1.6457307782523436e-02  1.0792521620193188e-02  5.2174770641005520e-03  2.1949752677823710e-03  8.4147577156338767e-04  2.9726332769163541e-04  9.5700309002402233e-05  2.6826550405721346e-05  5.5514991617395376e-06  0.0000000000000000e+00  0.0000000000000000e+00  1.6462931932529758e-02  1.0793268984973103e-02  5.2177875278679653e-03  2.1950872628413360e-03  8.4149084778909855e-04  2.9726554076553631e-04  9.5700086819217297e-05  2.6826856506263006e-05  5.5516628850300846e-06  0.0000000000000000e+00  0.0000000000000000e+00  1.6478310809771218e-02  1.0796255662645960e-02  5.2188536477749351e-03  2.1954748498962894e-03  8.4157856462395192e-04  2.9727454373040807e-04  9.5713726224708933e-05  2.6828653236266696e-05  5.5523597664228511e-06  0.0000000000000000e+00  0.0000000000000000e+00  1.6502154209694430e-02  1.0803134277191765e-02  5.2209637256097740e-03  2.1960959102741359e-03  8.4176916121404528e-04  2.9730760784085807e-04  9.5713081884583285e-05  2.6829627730338331e-05  5.5518157636085225e-06  0.0000000000000000e+00  0.0000000000000000e+00  1.6526682696942512e-02  1.0813949536269555e-02  5.2241101453007243e-03  2.1969743982978652e-03  8.4202324087318426e-04  2.9737153755495259e-04  9.5727947667929237e-05  2.6832366145352806e-05  5.5525513228528286e-06  0.0000000000000000e+00  0.0000000000000000e+00  1.6555297758898864e-02  1.0827295445280990e-02  5.2278704596230748e-03  2.1979726436603783e-03  8.4228015402072851e-04  2.9746325027610402e-04  9.5751787495537379e-05  2.6838182152399998e-05  5.5536836919087868e-06  0.0000000000000000e+00  </DataArray> 
</PointData> 
</Piece>
</UnstructuredGrid>
</VTKFile>