<?xml version="1.0"?>
<VTKFile type="UnstructuredGrid"  version="0.1"  >
<UnstructuredGrid>
<Piece  NumberOfPoints="396" NumberOfCells="1500">
<Points>
<DataArray  type="Float64"  NumberOfComponents="3"  format="ascii">-5 -2.5 -2.5  -4 -2.5 -2.5  -3 -2.5 -2.5  -2 -2.5 -2.5  -1 -2.5 -2.5  0 -2.5 -2.5  1 -2.5 -2.5  2 -2.5 -2.5  3 -2.5 -2.5  4 -2.5 -2.5  5 -2.5 -2.5  -5 -1.5 -2.5  -4 -1.5 -2.5  -3 -1.5 -2.5  -2 -1.5 -2.5  -1 -1.5 -2.5  0 -1.5 -2.5  1 -1.5 -2.5  2 -1.5 -2.5  3 -1.5 -2.5  4 -1.5 -2.5  5 -1.5 -2.5  -5 -0.5 -2.5  -4 -0.5 -2.5  -3 -0.5 -2.5  -2 -0.5 -2.5  -1 -0.5 -2.5  0 -0.5 -2.5  1 -0.5 -2.5  2 -0.5 -2.5  3 -0.5 -2.5  4 -0.5 -2.5  5 -0.5 -2.5  -5 0.5 -2.5  -4 0.5 -2.5  -3 0.5 -2.5  -2 0.5 -2.5  -1 0.5 -2.5  0 0.5 -2.5  1 0.5 -2.5  2 0.5 -2.5  3 0.5 -2.5  4 0.5 -2.5  5 0.5 -2.5  -5 1.5 -2.5  -4 1.5 -2.5  -3 1.5 -2.5  -2 1.5 -2.5  -1 1.5 -2.5  0 1.5 -2.5  1 1.5 -2.5  2 1.5 -2.5  3 1.5 -2.5  4 1.5 -2.5  5 1.5 -2.5  -5 2.5 -2.5  -4 2.5 -2.5  -3 2.5 -2.5  -2 2.5 -2.5  -1 2.5 -2.5  0 2.5 -2.5  1 2.5 -2.5  2 2.5 -2.5  3 2.5 -2.5  4 2.5 -2.5  5 2.5 -2.5  -5 -2.5 -1.5  -4 -2.5 -1.5  -3 -2.5 -1.5  -2 -2.5 -1.5  -1 -2.5 -1.5  0 -2.5 -1.5  1 -2.5 -1.5  2 -2.5 -1.5  3 -2.5 -1.5  4 -2.5 -1.5  5 -2.5 -1.5  -5 -1.5 -1.5  -4 -1.5 -1.5  -3 -1.5 -1.5  -2 -1.5 -1.5  -1 -1.5 -1.5  0 -1.5 -1.5  1 -1.5 -1.5  2 -1.5 -1.5  3 -1.5 -1.5  4 -1.5 -1.5  5 -1.5 -1.5  -5 -0.5 -1.5  -4 -0.5 -1.5  -3 -0.5 -1.5  -2 -0.5 -1.5  -1 -0.5 -1.5  0 -0.5 -1.5  1 -0.5 -1.5  2 -0.5 -1.5  3 -0.5 -1.5  4 -0.5 -1.5  5 -0.5 -1.5  -5 0.5 -1.5  -4 0.5 -1.5  -3 0.5 -1.5  -2 0.5 -1.5  -1 0.5 -1.5  0 0.5 -1.5  1 0.5 -1.5  2 0.5 -1.5  3 0.5 -1.5  4 0.5 -1.5  5 0.5 -1.5  -5 1.5 -1.5  -4 1.5 -1.5  -3 1.5 -1.5  -2 1.5 -1.5  -1 1.5 -1.5  0 1.5 -1.5  1 1.5 -1.5  2 1.5 -1.5  3 1.5 -1.5  4 1.5 -1.5  5 1.5 -1.5  -5 2.5 -1.5  -4 2.5 -1.5  -3 2.5 -1.5  -2 2.5 -1.5  -1 2.5 -1.5  0 2.5 -1.5  1 2.5 -1.5  2 2.5 -1.5  3 2.5 -1.5  4 2.5 -1.5  5 2.5 -1.5  -5 -2.5 -0.5  -4 -2.5 -0.5  -3 -2.5 -0.5  -2 -2.5 -0.5  -1 -2.5 -0.5  0 -2.5 -0.5  1 -2.5 -0.5  2 -2.5 -0.5  3 -2.5 -0.5  4 -2.5 -0.5  5 -2.5 -0.5  -5 -1.5 -0.5  -4 -1.5 -0.5  -3 -1.5 -0.5  -2 -1.5 -0.5  -1 -1.5 -0.5  0 -1.5 -0.5  1 -1.5 -0.5  2 -1.5 -0.5  3 -1.5 -0.5  4 -1.5 -0.5  5 -1.5 -0.5  -5 -0.5 -0.5  -4 -0.5 -0.5  -3 -0.5 -0.5  -2 -0.5 -0.5  -1 -0.5 -0.5  0 -0.5 -0.5  1 -0.5 -0.5  2 -0.5 -0.5  3 -0.5 -0.5  4 -0.5 -0.5  5 -0.5 -0.5  -5 0.5 -0.5  -4 0.5 -0.5  -3 0.5 -0.5  -2 0.5 -0.5  -1 0.5 -0.5  0 0.5 -0.5  1 0.5 -0.5  2 0.5 -0.5  3 0.5 -0.5  4 0.5 -0.5  5 0.5 -0.5  -5 1.5 -0.5  -4 1.5 -0.5  -3 1.5 -0.5  -2 1.5 -0.5  -1 1.5 -0.5  0 1.5 -0.5  1 1.5 -0.5  2 1.5 -0.5  3 1.5 -0.5  4 1.5 -0.5  5 1.5 -0.5  -5 2.5 -0.5  -4 2.5 -0.5  -3 2.5 -0.5  -2 2.5 -0.5  -1 2.5 -0.5  0 2.5 -0.5  1 2.5 -0.5  2 2.5 -0.5  3 2.5 -0.5  4 2.5 -0.5  5 2.5 -0.5  -5 -2.5 0.5  -4 -2.5 0.5  -3 -2.5 0.5  -2 -2.5 0.5  -1 -2.5 0.5  0 -2.5 0.5  1 -2.5 0.5  2 -2.5 0.5  3 -2.5 0.5  4 -2.5 0.5  5 -2.5 0.5  -5 -1.5 0.5  -4 -1.5 0.5  -3 -1.5 0.5  -2 -1.5 0.5  -1 -1.5 0.5  0 -1.5 0.5  1 -1.5 0.5  2 -1.5 0.5  3 -1.5 0.5  4 -1.5 0.5  5 -1.5 0.5  -5 -0.5 0.5  -4 -0.5 0.5  -3 -0.5 0.5  -2 -0.5 0.5  -1 -0.5 0.5  0 -0.5 0.5  1 -0.5 0.5  2 -0.5 0.5  3 -0.5 0.5  4 -0.5 0.5  5 -0.5 0.5  -5 0.5 0.5  -4 0.5 0.5  -3 0.5 0.5  -2 0.5 0.5  -1 0.5 0.5  0 0.5 0.5  1 0.5 0.5  2 0.5 0.5  3 0.5 0.5  4 0.5 0.5  5 0.5 0.5  -5 1.5 0.5  -4 1.5 0.5  -3 1.5 0.5  -2 1.5 0.5  -1 1.5 0.5  0 1.5 0.5  1 1.5 0.5  2 1.5 0.5  3 1.5 0.5  4 1.5 0.5  5 1.5 0.5  -5 2.5 0.5  -4 2.5 0.5  -3 2.5 0.5  -2 2.5 0.5  -1 2.5 0.5  0 2.5 0.5  1 2.5 0.5  2 2.5 0.5  3 2.5 0.5  4 2.5 0.5  5 2.5 0.5  -5 -2.5 1.5  -4 -2.5 1.5  -3 -2.5 1.5  -2 -2.5 1.5  -1 -2.5 1.5  0 -2.5 1.5  1 -2.5 1.5  2 -2.5 1.5  3 -2.5 1.5  4 -2.5 1.5  5 -2.5 1.5  -5 -1.5 1.5  -4 -1.5 1.5  -3 -1.5 1.5  -2 -1.5 1.5  -1 -1.5 1.5  0 -1.5 1.5  1 -1.5 1.5  2 -1.5 1.5  3 -1.5 1.5  4 -1.5 1.5  5 -1.5 1.5  -5 -0.5 1.5  -4 -0.5 1.5  -3 -0.5 1.5  -2 -0.5 1.5  -1 -0.5 1.5  0 -0.5 1.5  1 -0.5 1.5  2 -0.5 1.5  3 -0.5 1.5  4 -0.5 1.5  5 -0.5 1.5  -5 0.5 1.5  -4 0.5 1.5  -3 0.5 1.5  -2 0.5 1.5  -1 0.5 1.5  0 0.5 1.5  1 0.5 1.5  2 0.5 1.5  3 0.5 1.5  4 0.5 1.5  5 0.5 1.5  -5 1.5 1.5  -4 1.5 1.5  -3 1.5 1.5  -2 1.5 1.5  -1 1.5 1.5  0 1.5 1.5  1 1.5 1.5  2 1.5 1.5  3 1.5 1.5  4 1.5 1.5  5 1.5 1.5  -5 2.5 1.5  -4 2.5 1.5  -3 2.5 1.5  -2 2.5 1.5  -1 2.5 1.5  0 2.5 1.5  1 2.5 1.5  2 2.5 1.5  3 2.5 1.5  4 2.5 1.5  5 2.5 1.5  -5 -2.5 2.5  -4 -2.5 2.5  -3 -2.5 2.5  -2 -2.5 2.5  -1 -2.5 2.5  0 -2.5 2.5  1 -2.5 2.5  2 -2.5 2.5  3 -2.5 2.5  4 -2.5 2.5  5 -2.5 2.5  -5 -1.5 2.5  -4 -1.5 2.5  -3 -1.5 2.5  -2 -1.5 2.5  -1 -1.5 2.5  0 -1.5 2.5  1 -1.5 2.5  2 -1.5 2.5  3 -1.5 2.5  4 -1.5 2.5  5 -1.5 2.5  -5 -0.5 2.5  -4 -0.5 2.5  -3 -0.5 2.5  -2 -0.5 2.5  -1 -0.5 2.5  0 -0.5 2.5  1 -0.5 2.5  2 -0.5 2.5  3 -0.5 2.5  4 -0.5 2.5  5 -0.5 2.5  -5 0.5 2.5  -4 0.5 2.5  -3 0.5 2.5  -2 0.5 2.5  -1 0.5 2.5  0 0.5 2.5  1 0.5 2.5  2 0.5 2.5  3 0.5 2.5  4 0.5 2.5  5 0.5 2.5  -5 1.5 2.5  -4 1.5 2.5  -3 1.5 2.5  -2 1.5 2.5  -1 1.5 2.5  0 1.5 2.5  1 1.5 2.5  2 1.5 2.5  3 1.5 2.5  4 1.5 2.5  5 1.5 2.5  -5 2.5 2.5  -4 2.5 2.5  -3 2.5 2.5  -2 2.5 2.5  -1 2.5 2.5  0 2.5 2.5  1 2.5 2.5  2 2.5 2.5  3 2.5 2.5  4 2.5 2.5  5 2.5 2.5  </DataArray>
</Points>
<Cells>
[...]
<PointData  Scalars="u"> 
<DataArray  type="Float64"  Name="u"  format="ascii">4.3841259787737955e-16  3.3861170831189652e-01  4.6990176277880652e-01  5.5639721647441720e-01  6.3416870963526517e-01  7.1122442719068424e-01  7.8970498013898860e-01  8.7069612764490423e-01  9.5515628038292888e-01  1.0371455076215932e+00  1.0000000000000000e+00  -1.2424569735203322e-15  3.4738293873294201e-01  4.7330745435606830e-01  5.5737728949981502e-01  6.3444356940794655e-01  7.1132515516141526e-01  7.8974936825228392e-01  8.7059287297675525e-01  9.5419433518150532e-01  1.0327176407126835e+00  1.0000000000000000e+00  -2.4621330346916400e-16  3.4902807081121034e-01  4.7398480932106046e-01  5.5760212449802449e-01  6.3453929391878361e-01  7.1138833531593126e-01  7.8979673588432830e-01  8.7059525342077337e-01  9.5401088450633731e-01  1.0320213593154699e+00  1.0000000000000000e+00  -1.8930456555617970e-15  3.4949079966589391e-01  4.7424934795997953e-01  5.5773172815595018e-01  6.3461845294376640e-01  7.1145071472622290e-01  7.8985388627120989e-01  8.7065722092199649e-01  9.5407775178344323e-01  1.0318648440486471e+00  1.0000000000000000e+00  -6.9804448270053996e-16  3.5101051164316233e-01  4.7503070511391904e-01  5.5801706250473870e-01  6.3473552811424505e-01  7.1152751569785522e-01  7.8994215491645026e-01  8.7080958304517775e-01  9.5425675358150586e-01  1.0311300429622356e+00  9.9999999999999878e-01  0.0000000000000000e+00  3.6371983071290981e-01  4.7900378079719708e-01  5.5893601749703659e-01  6.3495157961696069e-01  7.1160228082917798e-01  7.8994886842866430e-01  8.7054223009684839e-01  9.5262095112747303e-01  1.0248034156775492e+00  1.0000000000000000e+00  -4.0455001927582843e-16  3.4738293873294201e-01  4.7330745435606814e-01  5.5737728949981535e-01  6.3444356940794644e-01  7.1132515516141515e-01  7.8974936825228392e-01  8.7059287297675503e-01  9.5419433518150554e-01  1.0327176407126832e+00  1.0000000000000000e+00  -3.8499675690291017e-15  3.6065316309472994e-01  4.7771268439955988e-01  5.5849114091074381e-01  6.3472409266921503e-01  7.1142110104185563e-01  7.8978308061044999e-01  8.7043489653161910e-01  9.5294316131312207e-01  1.0271069603214276e+00  1.0000000000000000e+00  -6.9565774388277777e-16  3.6268317919561555e-01  4.7823385341260932e-01  5.5860810859960508e-01  6.3478186253243851e-01  7.1147335393383382e-01  7.8982514070516274e-01  8.7042462329543258e-01  9.5272100919169245e-01  1.0263631709848062e+00  1.0000000000000004e+00  7.2756817682630790e-16  3.6324721666370996e-01  4.7846373108705598e-01  5.5871101862188866e-01  6.3485155048565411e-01  7.1153334698512327e-01  7.8988080379914150e-01  8.7047665641253047e-01  9.5274756477130496e-01  1.0261966744989839e+00  1.0000000000000000e+00  3.9368818050688185e-15  3.6517108899172224e-01  4.7932244563877824e-01  5.5899334739293527e-01  6.3496213866913465e-01  7.1160507358622072e-01  7.8995336776932623e-01  8.7056519675874244e-01  9.5275195414780789e-01  1.0254209861257872e+00  1.0000000000000033e+00  5.1084239046068220e-18  3.7906716217428504e-01  4.8327864450368979e-01  5.5983457985502150e-01  6.3514986013240349e-01  7.1167016990773779e-01  7.8994715734908816e-01  8.7026374270207851e-01  9.5110253574050385e-01  1.0195981961996476e+00  1.0000000000000000e+00  -1.8794417892134951e-15  3.4902807081121023e-01  4.7398480932106035e-01  5.5760212449802427e-01  6.3453929391878339e-01  7.1138833531593126e-01  7.8979673588432808e-01  8.7059525342077371e-01  9.5401088450633731e-01  1.0320213593154699e+00  1.0000000000000000e+00  1.2534002724602497e-15  3.6268317919561577e-01  4.7823385341260916e-01  5.5860810859960508e-01  6.3478186253243885e-01  7.1147335393383404e-01  7.8982514070516263e-01  8.7042462329543291e-01  9.5272100919169256e-01  1.0263631709848060e+00  9.9999999999999989e-01  1.5791738647338567e-15  3.6472826386135060e-01  4.7858690041305835e-01  5.5865660661106453e-01  6.3482178357651986e-01  7.1152174726277417e-01  7.8986574524568076e-01  8.7041166324520547e-01  9.5249489108968399e-01  1.0256324802599874e+00  1.0000000000000000e+00  2.3126614112043750e-15  3.6530377407699754e-01  4.7878011339384097e-01  5.5874862727177832e-01  6.3489038413425758e-01  7.1158208497731112e-01  7.8992123800279712e-01  8.7046133649475821e-01  9.5251430923524627e-01  1.0254693088366489e+00  1.0000000000000000e+00  -2.1311789319563461e-15  3.6726970483166976e-01  4.7959293340002324e-01  5.5900560820267065e-01  6.3499321264078890e-01  7.1165149549145457e-01  7.8999054575482996e-01  8.7053936043842761e-01  9.5249817642844969e-01  1.0247095852114343e+00  1.0000000000000000e+00  -8.9283364686303918e-19  3.8107927384801576e-01  4.8314635291897567e-01  5.5969371396684864e-01  6.3514261237938652e-01  7.1170815422632483e-01  7.8998060061420539e-01  8.7023608822737475e-01  9.5087952516999319e-01  1.0190575494727612e+00  1.0000000000000071e+00  4.9409762132364740e-17  3.4949079966589436e-01  4.7424934795997969e-01  5.5773172815595029e-01  6.3461845294376640e-01  7.1145071472622268e-01  7.8985388627120967e-01  8.7065722092199649e-01  9.5407775178344334e-01  1.0318648440486469e+00  1.0000000000000000e+00  -2.7796402030425950e-15  3.6324721666370996e-01  4.7846373108705570e-01  5.5871101862188843e-01  6.3485155048565389e-01  7.1153334698512327e-01  7.8988080379914138e-01  8.7047665641253058e-01  9.5274756477130473e-01  1.0261966744989837e+00  1.0000000000000000e+00  4.7519670934515721e-15  3.6530377407699788e-01  4.7878011339384124e-01  5.5874862727177832e-01  6.3489038413425747e-01  7.1158208497731124e-01  7.8992123800279712e-01  8.7046133649475821e-01  9.5251430923524616e-01  1.0254693088366487e+00  1.0000000000000000e+00  -3.6468812640275755e-16  3.6588363158564741e-01  4.7896388025276876e-01  5.5884134738098934e-01  6.3496073694577948e-01  7.1164355549756375e-01  7.8997783781406916e-01  8.7051161450470316e-01  9.5252925674744993e-01  1.0253067712399866e+00  1.0000000000000000e+00  1.5841024749006879e-15  3.6785912689966194e-01  4.7976047110525605e-01  5.5909196449379728e-01  6.3506234774391990e-01  7.1171309682545991e-01  7.9004701346273132e-01  8.7058538066649471e-01  9.5249645493207713e-01  1.0245495896697052e+00  9.9999999999999833e-01  9.7967627463975114e-16  3.8164786321108068e-01  4.8322085508804014e-01  5.5975473122844677e-01  6.3520830077316770e-01  7.1176898474708372e-01  7.9003357579228073e-01  8.7027097993613844e-01  9.5086129272791087e-01  1.0189379060217494e+00  9.9999999999999367e-01  4.2059640652014673e-16  3.5101051164316244e-01  4.7503070511391848e-01  5.5801706250473815e-01  6.3473552811424483e-01  7.1152751569785522e-01  7.8994215491645015e-01  8.7080958304517764e-01  9.5425675358150563e-01  1.0311300429622352e+00  1.0000000000000000e+00  3.4540127067057896e-15  3.6517108899172179e-01  4.7932244563877824e-01  5.5899334739293549e-01  6.3496213866913465e-01  7.1160507358622083e-01  7.8995336776932612e-01  8.7056519675874267e-01  9.5275195414780756e-01  1.0254209861257859e+00  9.9999999999999878e-01  8.5173123909052415e-16  3.6726970483167043e-01  4.7959293340002318e-01  5.5900560820267087e-01  6.3499321264078890e-01  7.1165149549145434e-01  7.8999054575483008e-01  8.7053936043842739e-01  9.5249817642844981e-01  1.0247095852114338e+00  1.0000000000000000e+00  1.5290100812130215e-15  3.6785912689966171e-01  4.7976047110525594e-01  5.5909196449379728e-01  6.3506234774391968e-01  7.1171309682545980e-01  7.9004701346273132e-01  8.7058538066649449e-01  9.5249645493207735e-01  1.0245495896697057e+00  9.9999999999999989e-01  -3.6665640729779713e-16  3.6986306752565301e-01  4.8054710234706399e-01  5.5933584569134176e-01  6.3516160499518381e-01  7.1178086729106049e-01  7.9010917912493972e-01  8.7063054912823368e-01  9.5238937326268325e-01  1.0237936079530223e+00  1.0000000000000024e+00  3.5357076862696240e-16  3.8353187744894734e-01  4.8391530182974923e-01  5.5996864281788739e-01  6.3529951147266417e-01  7.1183133156771516e-01  7.9008012742899481e-01  8.7027020473219430e-01  9.5068258357411972e-01  1.0183377144427270e+00  1.0000000000000042e+00  0.0000000000000000e+00  3.6371983071290981e-01  4.7900378079719669e-01  5.5893601749703614e-01  6.3495157961696047e-01  7.1160228082917754e-01  7.8994886842866441e-01  8.7054223009684828e-01  9.5262095112747269e-01  1.0248034156775490e+00  1.0000000000000000e+00  4.6049621764813769e-18  3.7906716217428504e-01  4.8327864450368990e-01  5.5983457985502172e-01  6.3514986013240349e-01  7.1167016990773779e-01  7.8994715734908805e-01  8.7026374270207840e-01  9.5110253574050341e-01  1.0195981961996474e+00  1.0000000000000020e+00  0.0000000000000000e+00  3.8107927384801599e-01  4.8314635291897567e-01  5.5969371396684875e-01  6.3514261237938663e-01  7.1170815422632416e-01  7.8998060061420550e-01  8.7023608822737475e-01  9.5087952516999297e-01  1.0190575494727601e+00  1.0000000000000000e+00  0.0000000000000000e+00  3.8164786321108057e-01  4.8322085508804002e-01  5.5975473122844699e-01  6.3520830077316759e-01  7.1176898474708361e-01  7.9003357579228095e-01  8.7027097993613822e-01  9.5086129272791120e-01  1.0189379060217507e+00  1.0000000000000018e+00  -2.1650854562663344e-16  3.8353187744894734e-01  4.8391530182974885e-01  5.5996864281788716e-01  6.3529951147266406e-01  7.1183133156771528e-01  7.9008012742899492e-01  8.7027020473219419e-01  9.5068258357411939e-01  1.0183377144427268e+00  1.0000000000000007e+00  -2.3542007006717272e-17  3.9437253806747896e-01  4.8658169314376298e-01  5.6046741077018247e-01  6.3541412142935116e-01  7.1187709770818697e-01  7.9005274528230740e-01  8.6996254844558141e-01  9.4938476719168730e-01  1.0147736123112834e+00  9.9999999999999956e-01  </DataArray> 
</PointData> 
</Piece>
</UnstructuredGrid>
</VTKFile>