<?xml version="1.0"?>
<VTKFile type="UnstructuredGrid"  version="0.1"  >
<UnstructuredGrid>
<Piece  NumberOfPoints="4096" NumberOfCells="20250">
<Points>
<DataArray  type="Float64"  NumberOfComponents="3"  format="ascii">0 0 0  0.06666666666666667 0 0  0.1333333333333333 0 0  0.2 0 0  0.2666666666666667 0 0  0.3333333333333333 0 0  0.4 0 0  0.4666666666666667 0 0  0.5333333333333333 0 0  0.6 0 0  0.6666666666666666 0 0  0.7333333333333333 0 0  0.8 0 0  0.8666666666666667 0 0  0.9333333333333333 0 0  1 0 0  0 0.06666666666666667 0  0.06666666666666667 0.06666666666666667 0  0.1333333333333333 0.06666666666666667 0  0.2 0.06666666666666667 0  0.2666666666666667 0.06666666666666667 0  0.3333333333333333 0.06666666666666667 0  0.4 0.06666666666666667 0  0.4666666666666667 0.06666666666666667 0  0.5333333333333333 0.06666666666666667 0  0.6 0.06666666666666667 0  0.6666666666666666 0.06666666666666667 0  0.7333333333333333 0.06666666666666667 0  0.8 0.06666666666666667 0  0.8666666666666667 0.06666666666666667 0  0.9333333333333333 0.06666666666666667 0  1 0.06666666666666667 0  0 0.1333333333333333 0  0.06666666666666667 0.1333333333333333 0  0.1333333333333333 0.1333333333333333 0  0.2 0.1333333333333333 0  0.2666666666666667 0.1333333333333333 0  0.3333333333333333 0.1333333333333333 0  0.4 0.1333333333333333 0  0.4666666666666667 0.1333333333333333 0  0.5333333333333333 0.1333333333333333 0  0.6 0.1333333333333333 0  0.6666666666666666 0.1333333333333333 0  0.7333333333333333 0.1333333333333333 0  0.8 0.1333333333333333 0  0.8666666666666667 0.1333333333333333 0  0.9333333333333333 0.1333333333333333 0  1 0.1333333333333333 0  0 0.2 0  0.06666666666666667 0.2 0  0.1333333333333333 0.2 0  0.2 0.2 0  0.2666666666666667 0.2 0  0.3333333333333333 0.2 0  0.4 0.2 0  0.4666666666666667 0.2 0  0.5333333333333333 0.2 0  0.6 0.2 0  0.6666666666666666 0.2 0  0.7333333333333333 0.2 0  0.8 0.2 0  0.8666666666666667 0.2 0  0.9333333333333333 0.2 0  1 0.2 0  0 0.2666666666666667 0  0.06666666666666667 0.2666666666666667 0  0.1333333333333333 0.2666666666666667 0  0.2 0.2666666666666667 0  0.2666666666666667 0.2666666666666667 0  0.3333333333333333 0.2666666666666667 0  0.4 0.2666666666666667 0  0.4666666666666667 0.2666666666666667 0  0.5333333333333333 0.2666666666666667 0  0.6 0.2666666666666667 0  0.6666666666666666 0.2666666666666667 0  0.7333333333333333 0.2666666666666667 0  0.8 0.2666666666666667 0  0.8666666666666667 0.2666666666666667 0  0.9333333333333333 0.2666666666666667 0  1 0.2666666666666667 0  0 0.3333333333333333 0  0.06666666666666667 0.3333333333333333 0  0.1333333333333333 0.3333333333333333 0  0.2 0.3333333333333333 0  0.2666666666666667 0.3333333333333333 0  0.3333333333333333 0.3333333333333333 0  0.4 0.3333333333333333 0  0.4666666666666667 0.3333333333333333 0  0.5333333333333333 0.3333333333333333 0  0.6 0.3333333333333333 0  0.6666666666666666 0.3333333333333333 0  0.7333333333333333 0.3333333333333333 0  0.8 0.3333333333333333 0  0.8666666666666667 0.3333333333333333 0  0.9333333333333333 0.3333333333333333 0  1 0.3333333333333333 0  0 0.4 0  0.06666666666666667 0.4 0  0.1333333333333333 0.4 0  0.2 0.4 0  0.2666666666666667 0.4 0  0.3333333333333333 0.4 0  0.4 0.4 0  0.4666666666666667 0.4 0  0.5333333333333333 0.4 0  0.6 0.4 0  0.6666666666666666 0.4 0  0.7333333333333333 0.4 0  0.8 0.4 0  0.8666666666666667 0.4 0  0.9333333333333333 0.4 0  1 0.4 0  0 0.4666666666666667 0  0.06666666666666667 0.4666666666666667 0  0.1333333333333333 0.4666666666666667 0  0.2 0.4666666666666667 0  0.2666666666666667 0.4666666666666667 0  0.3333333333333333 0.4666666666666667 0  0.4 0.4666666666666667 0  0.4666666666666667 0.4666666666666667 0  0.5333333333333333 0.4666666666666667 0  0.6 0.4666666666666667 0  0.6666666666666666 0.4666666666666667 0  0.7333333333333333 0.4666666666666667 0  0.8 0.4666666666666667 0  0.8666666666666667 0.4666666666666667 0  0.9333333333333333 0.4666666666666667 0  1 0.4666666666666667 0  0 0.5333333333333333 0  0.06666666666666667 0.5333333333333333 0  0.1333333333333333 0.5333333333333333 0  0.2 0.5333333333333333 0  0.2666666666666667 0.5333333333333333 0  0.3333333333333333 0.5333333333333333 0  0.4 0.5333333333333333 0  0.4666666666666667 0.5333333333333333 0  0.5333333333333333 0.5333333333333333 0  0.6 0.5333333333333333 0  0.6666666666666666 0.5333333333333333 0  0.7333333333333333 0.5333333333333333 0  0.8 0.5333333333333333 0  0.8666666666666667 0.5333333333333333 0  0.9333333333333333 0.5333333333333333 0  1 0.5333333333333333 0  0 0.6 0  0.06666666666666667 0.6 0  0.1333333333333333 0.6 0  0.2 0.6 0  0.2666666666666667 0.6 0  0.3333333333333333 0.6 0  0.4 0.6 0  0.4666666666666667 0.6 0  0.5333333333333333 0.6 0  0.6 0.6 0  0.6666666666666666 0.6 0  0.7333333333333333 0.6 0  0.8 0.6 0  0.8666666666666667 0.6 0  0.9333333333333333 0.6 0  1 0.6 0  0 0.6666666666666666 0  0.06666666666666667 0.6666666666666666 0  0.1333333333333333 0.6666666666666666 0  0.2 0.6666666666666666 0  0.2666666666666667 0.6666666666666666 0  0.3333333333333333 0.6666666666666666 0  0.4 0.6666666666666666 0  0.4666666666666667 0.6666666666666666 0  0.5333333333333333 0.6666666666666666 0  0.6 0.6666666666666666 0  0.6666666666666666 0.6666666666666666 0  0.7333333333333333 0.6666666666666666 0  0.8 0.6666666666666666 0  0.8666666666666667 0.6666666666666666 0  0.9333333333333333 0.6666666666666666 0  1 0.6666666666666666 0  0 0.7333333333333333 0  0.06666666666666667 0.7333333333333333 0  0.1333333333333333 0.7333333333333333 0  0.2 0.7333333333333333 0  0.2666666666666667 0.7333333333333333 0  0.3333333333333333 0.7333333333333333 0  0.4 0.7333333333333333 0  0.4666666666666667 0.7333333333333333 0  0.5333333333333333 0.7333333333333333 0  0.6 0.7333333333333333 0  0.6666666666666666 0.7333333333333333 0  0.7333333333333333 0.7333333333333333 0  0.8 0.7333333333333333 0  0.8666666666666667 0.7333333333333333 0  0.9333333333333333 0.7333333333333333 0  1 0.7333333333333333 0  0 0.8 0  0.06666666666666667 0.8 0  0.1333333333333333 0.8 0  0.2 0.8 0  0.2666666666666667 0.8 0  0.3333333333333333 0.8 0  0.4 0.8 0  0.4666666666666667 0.8 0  0.5333333333333333 0.8 0  0.6 0.8 0  0.6666666666666666 0.8 0  0.7333333333333333 0.8 0  0.8 0.8 0  0.8666666666666667 0.8 0  0.9333333333333333 0.8 0  1 0.8 0  0 0.8666666666666667 0  0.06666666666666667 0.8666666666666667 0  0.1333333333333333 0.8666666666666667 0  0.2 0.8666666666666667 0  0.2666666666666667 0.8666666666666667 0  0.3333333333333333 0.8666666666666667 0  0.4 0.8666666666666667 0  0.4666666666666667 0.8666666666666667 0  0.5333333333333333 0.8666666666666667 0  0.6 0.8666666666666667 0  0.6666666666666666 0.8666666666666667 0  0.7333333333333333 0.8666666666666667 0  0.8 0.8666666666666667 0  0.8666666666666667 0.8666666666666667 0  0.9333333333333333 0.8666666666666667 0  1 0.8666666666666667 0  0 0.9333333333333333 0  0.06666666666666667 0.9333333333333333 0  0.1333333333333333 0.9333333333333333 0  0.2 0.9333333333333333 0  0.2666666666666667 0.9333333333333333 0  0.3333333333333333 0.9333333333333333 0  0.4 0.9333333333333333 0  0.4666666666666667 0.9333333333333333 0  0.5333333333333333 0.9333333333333333 0  0.6 0.9333333333333333 0  0.6666666666666666 0.9333333333333333 0  0.7333333333333333 0.9333333333333333 0  0.8 0.9333333333333333 0  0.8666666666666667 0.9333333333333333 0  0.9333333333333333 0.9333333333333333 0  1 0.9333333333333333 0  0 1 0  0.06666666666666667 1 0  0.1333333333333333 1 0  0.2 1 0  0.2666666666666667 1 0  0.3333333333333333 1 0  0.4 1 0  0.4666666666666667 1 0  0.5333333333333333 1 0  0.6 1 0  0.6666666666666666 1 0  0.7333333333333333 1 0  0.8 1 0  0.8666666666666667 1 0  0.9333333333333333 1 0  1 1 0  0 0 0.06666666666666667  0.06666666666666667 0 0.06666666666666667  0.1333333333333333 0 0.06666666666666667  0.2 0 0.06666666666666667  0.2666666666666667 0 0.06666666666666667  0.3333333333333333 0 0.06666666666666667  0.4 0 0.06666666666666667  0.4666666666666667 0 0.06666666666666667  0.5333333333333333 0 0.06666666666666667  0.6 0 0.06666666666666667  0.6666666666666666 0 0.06666666666666667  0.7333333333333333 0 0.06666666666666667  0.8 0 0.06666666666666667  0.8666666666666667 0 0.06666666666666667  0.9333333333333333 0 0.06666666666666667  1 0 0.06666666666666667  0 0.06666666666666667 0.06666666666666667  0.06666666666666667 0.06666666666666667 0.06666666666666667  0.1333333333333333 0.06666666666666667 0.06666666666666667  0.2 0.06666666666666667 0.06666666666666667  0.2666666666666667 0.06666666666666667 0.06666666666666667  0.3333333333333333 0.06666666666666667 0.06666666666666667  0.4 0.06666666666666667 0.06666666666666667  0.4666666666666667 0.06666666666666667 0.06666666666666667  0.5333333333333333 0.06666666666666667 0.06666666666666667  0.6 0.06666666666666667 0.06666666666666667  0.6666666666666666 0.06666666666666667 0.06666666666666667  0.7333333333333333 0.06666666666666667 0.06666666666666667  0.8 0.06666666666666667 0.06666666666666667  0.8666666666666667 0.06666666666666667 0.06666666666666667  0.9333333333333333 0.06666666666666667 0.06666666666666667  1 0.06666666666666667 0.06666666666666667  0 0.1333333333333333 0.06666666666666667  0.06666666666666667 0.1333333333333333 0.06666666666666667  0.1333333333333333 0.1333333333333333 0.06666666666666667  0.2 0.1333333333333333 0.06666666666666667  0.2666666666666667 0.1333333333333333 0.06666666666666667  0.3333333333333333 0.1333333333333333 0.06666666666666667  0.4 0.1333333333333333 0.06666666666666667  0.4666666666666667 0.1333333333333333 0.06666666666666667  0.5333333333333333 0.1333333333333333 0.06666666666666667  0.6 0.1333333333333333 0.06666666666666667  0.6666666666666666 0.1333333333333333 0.06666666666666667  0.7333333333333333 0.1333333333333333 0.06666666666666667  0.8 0.1333333333333333 0.06666666666666667  0.8666666666666667 0.1333333333333333 0.06666666666666667  0.9333333333333333 0.1333333333333333 0.06666666666666667  1 0.
[...]
<PointData  Scalars="u"> 
<DataArray  type="Float64"  Name="u"  format="ascii">0.0000000000000000e+00  -6.0977777777777784e-02  -1.1324444444444447e-01  -1.5679999999999999e-01  -1.9164444444444445e-01  -2.1777777777777776e-01  -2.3519999999999999e-01  -2.4391111111111108e-01  -2.4391111111111113e-01  -2.3519999999999999e-01  -2.1777777777777776e-01  -1.9164444444444445e-01  -1.5679999999999997e-01  -1.1324444444444443e-01  -6.0977777777777763e-02  0.0000000000000000e+00  -6.0977777777777784e-02  -1.0149135802469138e-01  -1.3503209876543210e-01  -1.6160000000000002e-01  -1.8119506172839508e-01  -1.9381728395061734e-01  -1.9946666666666668e-01  -1.9814320987654321e-01  -1.8984691358024694e-01  -1.7457777777777780e-01  -1.5233580246913583e-01  -1.2312098765432100e-01  -8.6933333333333293e-02  -4.3772839506172834e-02  6.3604938271605103e-03  6.3466666666666671e-02  -1.1324444444444447e-01  -1.3503209876543210e-01  -1.5150617283950624e-01  -1.6266666666666668e-01  -1.6851358024691365e-01  -1.6904691358024695e-01  -1.6426666666666667e-01  -1.5417283950617278e-01  -1.3876543209876543e-01  -1.1804444444444445e-01  -9.2009876543209898e-02  -6.0661728395061745e-02  -2.3999999999999976e-02  1.7975308641975343e-02  6.5264197530864210e-02  1.1786666666666669e-01  -1.5679999999999999e-01  -1.6160000000000002e-01  -1.6266666666666668e-01  -1.6000000000000000e-01  -1.5360000000000001e-01  -1.4346666666666663e-01  -1.2959999999999997e-01  -1.1199999999999996e-01  -9.0666666666666673e-02  -6.5599999999999978e-02  -3.6800000000000006e-02  -4.2666666666666894e-03  3.2000000000000035e-02  7.2000000000000022e-02  1.1573333333333334e-01  1.6320000000000001e-01  -1.9164444444444445e-01  -1.8119506172839508e-01  -1.6851358024691365e-01  -1.5360000000000001e-01  -1.3645432098765431e-01  -1.1707654320987654e-01  -9.5466666666666658e-02  -7.1624691358024684e-02  -4.5550617283950628e-02  -1.7244444444444437e-02  1.3293827160493824e-02  4.6064197530864187e-02  8.1066666666666704e-02  1.1830123456790129e-01  1.5776790123456791e-01  1.9946666666666668e-01  -2.1777777777777776e-01  -1.9381728395061734e-01  -1.6904691358024695e-01  -1.4346666666666663e-01  -1.1707654320987654e-01  -8.9876543209876550e-02  -6.1866666666666639e-02  -3.3046913580246903e-02  -3.4172839506173003e-03  2.7022222222222218e-02  5.8271604938271590e-02  9.0330864197530836e-02  1.2320000000000003e-01  1.5687901234567905e-01  1.9136790123456790e-01  2.2666666666666666e-01  -2.3519999999999999e-01  -1.9946666666666668e-01  -1.6426666666666667e-01  -1.2959999999999997e-01  -9.5466666666666658e-02  -6.1866666666666646e-02  -2.8799999999999971e-02  3.7333333333333524e-03  3.5733333333333339e-02  6.7199999999999996e-02  9.8133333333333336e-02  1.2853333333333333e-01  1.5840000000000001e-01  1.8773333333333336e-01  2.1653333333333333e-01  2.4479999999999999e-01  -2.4391111111111108e-01  -1.9814320987654321e-01  -1.5417283950617278e-01  -1.1199999999999996e-01  -7.1624691358024684e-02  -3.3046913580246903e-02  3.7333333333333524e-03  3.8716049382716063e-02  7.1901234567901234e-02  1.0328888888888887e-01  1.3287901234567900e-01  1.6067160493827157e-01  1.8666666666666670e-01  2.1086419753086419e-01  2.3326419753086419e-01  2.5386666666666663e-01  -2.4391111111111113e-01  -1.8984691358024694e-01  -1.3876543209876543e-01  -9.0666666666666673e-02  -4.5550617283950628e-02  -3.4172839506173003e-03  3.5733333333333339e-02  7.1901234567901234e-02  1.0508641975308641e-01  1.3528888888888888e-01  1.6250864197530862e-01  1.8674567901234565e-01  2.0800000000000002e-01  2.2627160493827161e-01  2.4156049382716052e-01  2.5386666666666668e-01  -2.3519999999999999e-01  -1.7457777777777780e-01  -1.1804444444444445e-01  -6.5599999999999978e-02  -1.7244444444444437e-02  2.7022222222222211e-02  6.7199999999999996e-02  1.0328888888888887e-01  1.3528888888888888e-01  1.6319999999999996e-01  1.8702222222222220e-01  2.0675555555555553e-01  2.2240000000000001e-01  2.3395555555555558e-01  2.4142222222222220e-01  2.4479999999999999e-01  -2.1777777777777776e-01  -1.5233580246913583e-01  -9.2009876543209898e-02  -3.6799999999999999e-02  1.3293827160493817e-02  5.8271604938271590e-02  9.8133333333333350e-02  1.3287901234567900e-01  1.6250864197530862e-01  1.8702222222222220e-01  2.0641975308641974e-01  2.2070123456790122e-01  2.2986666666666669e-01  2.3391604938271607e-01  2.3284938271604935e-01  2.2666666666666666e-01  -1.9164444444444445e-01  -1.2312098765432100e-01  -6.0661728395061745e-02  -4.2666666666666825e-03  4.6064197530864187e-02  9.0330864197530836e-02  1.2853333333333333e-01  1.6067160493827157e-01  1.8674567901234565e-01  2.0675555555555553e-01  2.2070123456790122e-01  2.2858271604938271e-01  2.3040000000000002e-01  2.2615308641975310e-01  2.1584197530864196e-01  1.9946666666666668e-01  -1.5679999999999997e-01  -8.6933333333333293e-02  -2.3999999999999973e-02  3.2000000000000035e-02  8.1066666666666704e-02  1.2320000000000003e-01  1.5840000000000001e-01  1.8666666666666670e-01  2.0800000000000002e-01  2.2240000000000001e-01  2.2986666666666666e-01  2.3040000000000002e-01  2.2399999999999998e-01  2.1066666666666664e-01  1.9039999999999999e-01  1.6319999999999998e-01  -1.1324444444444443e-01  -4.3772839506172834e-02  1.7975308641975343e-02  7.2000000000000036e-02  1.1830123456790129e-01  1.5687901234567905e-01  1.8773333333333336e-01  2.1086419753086419e-01  2.2627160493827164e-01  2.3395555555555558e-01  2.3391604938271607e-01  2.2615308641975310e-01  2.1066666666666664e-01  1.8745679012345676e-01  1.5652345679012344e-01  1.1786666666666665e-01  -6.0977777777777763e-02  6.3604938271605103e-03  6.5264197530864210e-02  1.1573333333333334e-01  1.5776790123456791e-01  1.9136790123456790e-01  2.1653333333333333e-01  2.3326419753086419e-01  2.4156049382716052e-01  2.4142222222222220e-01  2.3284938271604935e-01  2.1584197530864196e-01  1.9039999999999999e-01  1.5652345679012344e-01  1.1421234567901233e-01  6.3466666666666657e-02  0.0000000000000000e+00  6.3466666666666671e-02  1.1786666666666669e-01  1.6320000000000001e-01  1.9946666666666668e-01  2.2666666666666666e-01  2.4479999999999999e-01  2.5386666666666663e-01  2.5386666666666668e-01  2.4479999999999999e-01  2.2666666666666666e-01  1.9946666666666668e-01  1.6319999999999998e-01  1.1786666666666665e-01  6.3466666666666657e-02  0.0000000000000000e+00  0.0000000000000000e+00  -6.0977777777777784e-02  -1.1324444444444447e-01  -1.5679999999999999e-01  -1.9164444444444445e-01  -2.1777777777777776e-01  -2.3519999999999999e-01  -2.4391111111111108e-01  -2.4391111111111113e-01  -2.3519999999999999e-01  -2.1777777777777776e-01  -1.9164444444444445e-01  -1.5679999999999997e-01  -1.1324444444444443e-01  -6.0977777777777763e-02  0.0000000000000000e+00  -6.0977777777777784e-02  -1.0149135802469138e-01  -1.3503209876543210e-01  -1.6160000000000002e-01  -1.8119506172839508e-01  -1.9381728395061734e-01  -1.9946666666666668e-01  -1.9814320987654321e-01  -1.8984691358024694e-01  -1.7457777777777780e-01  -1.5233580246913583e-01  -1.2312098765432100e-01  -8.6933333333333293e-02  -4.3772839506172834e-02  6.3604938271605103e-03  6.3466666666666671e-02  -1.1324444444444447e-01  -1.3503209876543210e-01  -1.5150617283950624e-01  -1.6266666666666668e-01  -1.6851358024691365e-01  -1.6904691358024695e-01  -1.6426666666666667e-01  -1.5417283950617278e-01  -1.3876543209876543e-01  -1.1804444444444445e-01  -9.2009876543209898e-02  -6.0661728395061745e-02  -2.3999999999999976e-02  1.7975308641975343e-02  6.5264197530864210e-02  1.1786666666666669e-01  -1.5679999999999999e-01  -1.6160000000000002e-01  -1.6266666666666668e-01  -1.6000000000000000e-01  -1.5360000000000001e-01  -1.4346666666666663e-01  -1.2959999999999997e-01  -1.1199999999999996e-01  -9.0666666666666673e-02  -6.5599999999999978e-02  -3.6800000000000006e-02  -4.2666666666666894e-03  3.2000000000000035e-02  7.2000000000000022e-02  1.1573333333333334e-01  1.6320000000000001e-01  -1.9164444444444445e-01  -1.8119506172839508e-01  -1.6851358024691365e-01  -1.5360000000000001e-01  -1.3645432098765431e-01  -1.1707654320987654e-01  -9.5466666666666658e-02  -7.1624691358024684e-02  -4.5550617283950628e-02  -1.7244444444444437e-02  1.3293827160493824e-02  4.6064197530864187e-02  8.1066666666666704e-02  1.1830123456790129e-01  1.5776790123456791e-01  1.9946666666666668e-01  -2.1777777777777776e-01  -1.9381728395061734e-01  -1.6904691358024695e-01  -1.4346666666666663e-01  -1.1707654320987654e-01  -8.9876543209876550e-02  -6.1866666666666639e-02  -3.3046913580246903e-02  -3.4172839506173003e-03  2.7022222222222218e-02  5.8271604938271590e-02  9.0330864197530836e-02  1.2320000000000003e-01  1.5687901234567905e-01  1.9136790123456790e-01  2.2666666666666666e-01  -2.3519999999999999e-01  -1.9946666666666668e-01  -1.6426666666666667e-01  -1.2959999999999997e-01  -9.5466666666666658e-02  -6.1866666666666646e-02  -2.8799999999999971e-02  3.7333333333333524e-03  3.5733333333333339e-02  6.7199999999999996e-02  9.8133333333333336e-02  1.2853333333333333e-01  1.5840000000000001e-01  1.8773333333333336e-01  2.1653333333333333e-01  2.4479999999999999e-01  -2.4391111111111108e-01  -1.9814320987654321e-01  -1.5417283950617278e-01  -1.1199999999999996e-01  -7.1624691358024684e-02  -3.3046913580246903e-02  3.7333333333333524e-03  3.8716049382716063e-02  7.1901234567901234e-02  1.0328888888888887e-01  1.3287901234567900e-01  1.6067160493827157e-01  1.8666666666666670e-01  2.1086419753086419e-01  2.3326419753086419e-01  2.5386666666666663e-01  -2.4391111111111113e-01  -1.8984691358024694e-01  -1.3876543209876543e-01  -9.0666666666666673e-02  -4.5550617283950628e-02  -3.4172839506173003e-03  3.5733333333333339e-02  7.1901234567901234e-02  1.0508641975308641e-01  1.3528888888888888e-01  1.6250864197530862e-01  1.8674567901234565e-01  2.0800000000000002e-01  2.2627160493827161e-01  2.4156049382716052e-01  2.5386666666666668e-01  -2.3519999999999999e-01  -1.7457777777777780e-01  -1.1804444444444445e-01  -6.5599999999999978e-02  -1.7244444444444437e-02  2.7022222222222211e-02  6.7199999999999996e-02  1.0328888888888887e-01  1.3528888888888888e-01  1.6319999999999996e-01  1.8702222222222220e-01  2.0675555555555553e-01  2.2240000000000001e-01  2.3395555555555558e-01  2.4142222222222220e-01  2.4479999999999999e-01  -2.1777777777777776e-01  -1.5233580246913583e-01  -9.2009876543209898e-02  -3.6799999999999999e-02  1.3293827160493817e-02  5.8271604938271590e-02  9.8133333333333350e-02  1.3287901234567900e-01  1.6250864197530862e-01  1.8702222222222220e-01  2.0641975308641974e-01  2.2070123456790122e-01  2.2986666666666669e-01  2.3391604938271607e-01  2.3284938271604935e-01  2.2666666666666666e-01  -1.9164444444444445e-01  -1.2312098765432100e-01  -6.0661728395061745e-02  -4.2666666666666825e-03  4.6064197530864187e-02  9.0330864197530836e-02  1.2853333333333333e-01  1.6067160493827157e-01  1.8674567901234565e-01  2.0675555555555553e-01  2.2070123456790122e-01  2.2858271604938271e-01  2.3040000000000002e-01  2.2615308641975310e-01  2.1584197530864196e-01  1.9946666666666668e-01  -1.5679999999999997e-01  -8.6933333333333293e-02  -2.3999999999999973e-02  3.2000000000000035e-02  8.1066666666666704e-02  1.2320000000000003e-01  1.5840000000000001e-01  1.8666666666666670e-01  2.0800000000000002e-01  2.2240000000000001e-01  2.2986666666666666e-01  2.3040000000000002e-01  2.2399999999999998e-01  2.1066666666666664e-01  1.9039999999999999e-01  1.6319999999999998e-01  -1.1324444444444443e-01  -4.3772839506172834e-02  1.7975308641975343e-02  7.2000000000000036e-02  1.1830123456790129e-01  1.5687901234567905e-01  1.8773333333333336e-01  2.1086419753086419e-01  2.2627160493827164e-01  2.3395555555555558e-01  2.3391604938271607e-01  2.2615308641975310e-01  2.1066666666666664e-01  1.8745679012345676e-01  1.5652345679012344e-01  1.1786666666666665e-01  -6.0977777777777763e-02  6.3604938271605103e-03  6.5264197530864210e-02  1.1573333333333334e-01  1.5776790123456791e-01  1.9136790123456790e-01  2.1653333333333333e-01  2.3326419753086419e-01  2.4156049382716052e-01  2.4142222222222220e-01  2.3284938271604935e-01  2.1584197530864196e-01  1.9039999999999999e-01  1.5652345679012344e-01  1.1421234567901233e-01  6.3466666666666657e-02  0.0000000000000000e+00  6.3466666666666671e-02  1.1786666666666669e-01  1.6320000000000001e-01  1.9946666666666668e-01  2.2666666666666666e-01  2.4479999999999999e-01  2.5386666666666663e-01  2.5386666666666668e-01  2.4479999999999999e-01  2.2666666666666666e-01  1.9946666666666668e-01  1.6319999999999998e-01  1.1786666666666665e-01  6.3466666666666657e-02  0.0000000000000000e+00  0.0000000000000000e+00  -6.0977777777777784e-02  -1.1324444444444447e-01  -1.5679999999999999e-01  -1.9164444444444445e-01  -2.1777777777777776e-01  -2.3519999999999999e-01  -2.4391111111111108e-01  -2.4391111111111113e-01  -2.3519999999999999e-01  -2.1777777777777776e-01  -1.9164444444444445e-01  -1.5679999999999997e-01  -1.1324444444444443e-01  -6.0977777777777763e-02  0.0000000000000000e+00  -6.0977777777777784e-02  -1.0149135802469138e-01  -1.3503209876543210e-01  -1.6160000000000002e-01  -1.8119506172839508e-01  -1.9381728395061734e-01  -1.9946666666666668e-01  -1.9814320987654321e-01  -1.8984691358024694e-01  -1.7457777777777780e-01  -1.5233580246913583e-01  -1.2312098765432100e-01  -8.6933333333333293e-02  -4.3772839506172834e-02  6.3604938271605103e-03  6.3466666666666671e-02  -1.1324444444444447e-01  -1.3503209876543210e-01  -1.5150617283950624e-01  -1.6266666666666668e-01  -1.6851358024691365e-01  -1.6904691358024695e-01  -1.6426666666666667e-01  -1.5417283950617278e-01  -1.3876543209876543e-01  -1.1804444444444445e-01  -9.2009876543209898e-02  -6.0661728395061745e-02  -2.3999999999999976e-02  1.7975308641975343e-02  6.5264197530864210e-02  1.1786666666666669e-01  -1.5679999999999999e-01  -1.6160000000000002e-01  -1.6266666666666668e-01  -1.6000000000000000e-01  -1.5360000000000001e-01  -1.4346666666666663e-01  -1.2959999999999997e-01  -1.1199999999999996e-01  -9.0666666666666673e-02  -6.5599999999999978e-02  -3.6800000000000006e-02  -4.2666666666666894e-03  3.2000000000000035e-02  7.2000000000000022e-02  1.1573333333333334e-01  1.6320000000000001e-01  -1.9164444444444445e-01  -1.8119506172839508e-01  -1.6851358024691365e-01  -1.5360000000000001e-01  -1.3645432098765431e-01  -1.1707654320987654e-01  -9.5466666666666658e-02  -7.1624691358024684e-02  -4.5550617283950628e-02  -1.7244444444444437e-02  1.3293827160493824e-02  4.6064197530864187e-02  8.1066666666666704e-02  1.1830123456790129e-01  1.5776790123456791e-01  1.9946666666666668e-01  -2.1777777777777776e-01  -1.9381728395061734e-01  -1.6904691358024695e-01  -1.4346666666666663e-01  -1.1707654320987654e-01  -8.9876543209876550e-02  -6.1866666666666639e-02  -3.3046913580246903e-02  -3.4172839506173003e-03  2.7022222222222218e-02  5.8271604938271590e-02  9.0330864197530836e-02  1.2320000000000003e-01  1.5687901234567905e-01  1.9136790123456790e-01  2.2666666666666666e-01  -2.3519999999999999e-01  -1.9946666666666668e-01  -1.6426666666666667e-01  -1.2959999999999997e-01  -9.5466666666666658e-02  -6.1866666666666646e-02  -2.8799999999999971e-02  3.7333333333333524e-03  3.5733333333333339e-02  6.7199999999999996e-02  9.8133333333333336e-02  1.2853333333333333e-01  1.5840000000000001e-01  1.8773333333333336e-01  2.1653333333333333e-01  2.4479999999999999e-01  -2.4391111111111108e-01  -1.9814320987654321e-01  -1.5417283950617278e-01  -1.1199999999999996e-01  -7.1624691358024684e-02  -3.3046913580246903e-02  3.7333333333333524e-03  3.8716049382716063e-02  7.1901234567901234e-02  1.0328888888888887e-01  1.3287901234567900e-01  1.6067160493827157e-01  1.8666666666666670e-01  2.1086419753086419e-01  2.3326419753086419e-01  2.5386666666666663e-01  -2.4391111111111113e-01  -1.8984691358024694e-01  -1.3876543209876543e-01  -9.0666666666666673e-02  -4.5550617283950628e-02  -3.4172839506173003e-03  3.5733333333333339e-02  7.1901234567901234e-02  1.0508641975308641e-01  1.3528888888888888e-01  1.6250864197530862e-01  1.8674567901234565e-01  2.0800000000000002e-01  2.2627160493827161e-01  2.4156049382716052e-01  2.5386666666666668e-01  -2.3519999999999999e-01  -1.7457777777777780e-01  -1.1804444444444445e-01  -6.5599999999999978e-02  -1.7244444444444437e-02  2.7022222222222211e-02  6.7199999999999996e-02  1.0328888888888887e-01  1.3528888888888888e-01  1.6319999999999996e-01  1.8702222222222220e-01  2.0675555555555553e-01  2.2240000000000001e-01  2.3395555555555558e-01  2.4142222222222220e-01  2.4479999999999999e-01  -2.1777777777777776e-01  -1.5233580246913583e-01  -9.2009876543209898e-02  -3.6799999999999999e-02  1.3293827160493817e-02  5.8271604938271590e-02  9.8133333333333350e-02  1.3287901234567900e-01  1.6250864197530862e-01  1.8702222222222220e-01  2.0641975308641974e-01  2.2070123456790122e-01  2.2986666666666669e-01  2.3391604938271607e-01  2.3284938271604935e-01  2.2666666666666666e-01  -1.9164444444444445e-01  -1.2312098765432100e-01  -6.0661728395061745e-02  -4.2666666666666825e-03  4.6064197530864187e-02  9.0330864197530836e-02  1.2853333333333333e-01  1.6067160493827157e-01  1.8674567901234565e-01  2.0675555555555553e-01  2.2070123456790122e-01  2.2858271604938271e-01  2.3040000000000002e-01  2.2615308641975310e-01  2.1584197530864196e-01  1.9946666666666668e-01  -1.5679999999999997e-01  -8.6933333333333293e-02  -2.3999999999999973e-02  3.2000000000000035e-02  8.1066666666666704e-02  1.2320000000000003e-01  1.5840000000000001e-01  1.8666666666666670e-01  2.0800000000000002e-01  2.2240000000000001e-01  2.2986666666666666e-01  2.3040000000000002e-01  2.2399999999999998e-01  2.1066666666666664e-01  1.9039999999999999e-01  1.6319999999999998e-01  -1.1324444444444443e-01  -4.3772839506172834e-02  1.7975308641975343e-02  7.2000000000000036e-02  1.1830123456790129e-01  1.5687901234567905e-01  1.8773333333333336e-01  2.1086419753086419e-01  2.2627160493827164e-01  2.3395555555555558e-01  2.3391604938271607e-01  2.2615308641975310e-01  2.1066666666666664e-01  1.8745679012345676e-01  1.5652345679012344e-01  1.1786666666666665e-01  -6.0977777777777763e-02  6.3604938271605103e-03  6.5264197530864210e-02  1.1573333333333334e-01  1.5776790123456791e-01  1.9136790123456790e-01  2.1653333333333333e-01  2.3326419753086419e-01  2.4156049382716052e-01  2.4142222222222220e-01  2.3284938271604935e-01  2.1584197530864196e-01  1.9039999999999999e-01  1.5652345679012344e-01  1.1421234567901233e-01  6.3466666666666657e-02  0.0000000000000000e+00  6.3466666666666671e-02  1.1786666666666669e-01  1.6320000000000001e-01  1.9946666666666668e-01  2.2666666666666666e-01  2.4479999999999999e-01  2.5386666666666663e-01  2.5386666666666668e-01  2.4479999999999999e-01  2.2666666666666666e-01  1.9946666666666668e-01  1.6319999999999998e-01  1.1786666666666665e-01  6.3466666666666657e-02  0.0000000000000000e+00  0.0000000000000000e+00  -6.0977777777777784e-02  -1.1324444444444447e-01  -1.5679999999999999e-01  -1.9164444444444445e-01  -2.1777777777777776e-01  -2.3519999999999999e-01  -2.4391111111111108e-01  -2.4391111111111113e-01  -2.3519999999999999e-01  -2.1777777777777776e-01  -1.9164444444444445e-01  -1.5679999999999997e-01  -1.1324444444444443e-01  -6.0977777777777763e-02  0.0000000000000000e+00  -6.0977777777777784e-02  -1.0149135802469138e-01  -1.3503209876543210e-01  -1.6160000000000002e-01  -1.8119506172839508e-01  -1.9381728395061734e-01  -1.9946666666666668e-01  -1.9814320987654321e-01  -1.8984691358024694e-01  -1.7457777777777780e-01  -1.5233580246913583e-01  -1.2312098765432100e-01  -8.6933333333333293e-02  -4.3772839506172834e-02  6.3604938271605103e-03  6.3466666666666671e-02  -1.1324444444444447e-01  -1.3503209876543210e-01  -1.5150617283950624e-01  -1.6266666666666668e-01  -1.6851358024691365e-01  -1.6904691358024695e-01  -1.6426666666666667e-01  -1.5417283950617278e-01  -1.3876543209876543e-01  -1.1804444444444445e-01  -9.2009876543209898e-02  -6.0661728395061745e-02  -2.3999999999999976e-02  1.7975308641975343e-02  6.526419753086