<?xml version="1.0"?>
<VTKFile type="UnstructuredGrid"  version="0.1"  >
<UnstructuredGrid>
<Piece  NumberOfPoints="9261" NumberOfCells="48000">
<Points>
<DataArray  type="Float64"  NumberOfComponents="3"  format="ascii">0 0 0  0.05 0 0  0.1 0 0  0.15 0 0  0.2 0 0  0.25 0 0  0.3 0 0  0.35 0 0  0.4 0 0  0.45 0 0  0.5 0 0  0.55 0 0  0.6 0 0  0.65 0 0  0.7 0 0  0.75 0 0  0.8 0 0  0.85 0 0  0.9 0 0  0.95 0 0  1 0 0  0 0.05 0  0.05 0.05 0  0.1 0.05 0  0.15 0.05 0  0.2 0.05 0  0.25 0.05 0  0.3 0.05 0  0.35 0.05 0  0.4 0.05 0  0.45 0.05 0  0.5 0.05 0  0.55 0.05 0  0.6 0.05 0  0.65 0.05 0  0.7 0.05 0  0.75 0.05 0  0.8 0.05 0  0.85 0.05 0  0.9 0.05 0  0.95 0.05 0  1 0.05 0  0 0.1 0  0.05 0.1 0  0.1 0.1 0  0.15 0.1 0  0.2 0.1 0  0.25 0.1 0  0.3 0.1 0  0.35 0.1 0  0.4 0.1 0  0.45 0.1 0  0.5 0.1 0  0.55 0.1 0  0.6 0.1 0  0.65 0.1 0  0.7 0.1 0  0.75 0.1 0  0.8 0.1 0  0.85 0.1 0  0.9 0.1 0  0.95 0.1 0  1 0.1 0  0 0.15 0  0.05 0.15 0  0.1 0.15 0  0.15 0.15 0  0.2 0.15 0  0.25 0.15 0  0.3 0.15 0  0.35 0.15 0  0.4 0.15 0  0.45 0.15 0  0.5 0.15 0  0.55 0.15 0  0.6 0.15 0  0.65 0.15 0  0.7 0.15 0  0.75 0.15 0  0.8 0.15 0  0.85 0.15 0  0.9 0.15 0  0.95 0.15 0  1 0.15 0  0 0.2 0  0.05 0.2 0  0.1 0.2 0  0.15 0.2 0  0.2 0.2 0  0.25 0.2 0  0.3 0.2 0  0.35 0.2 0  0.4 0.2 0  0.45 0.2 0  0.5 0.2 0  0.55 0.2 0  0.6 0.2 0  0.65 0.2 0  0.7 0.2 0  0.75 0.2 0  0.8 0.2 0  0.85 0.2 0  0.9 0.2 0  0.95 0.2 0  1 0.2 0  0 0.25 0  0.05 0.25 0  0.1 0.25 0  0.15 0.25 0  0.2 0.25 0  0.25 0.25 0  0.3 0.25 0  0.35 0.25 0  0.4 0.25 0  0.45 0.25 0  0.5 0.25 0  0.55 0.25 0  0.6 0.25 0  0.65 0.25 0  0.7 0.25 0  0.75 0.25 0  0.8 0.25 0  0.85 0.25 0  0.9 0.25 0  0.95 0.25 0  1 0.25 0  0 0.3 0  0.05 0.3 0  0.1 0.3 0  0.15 0.3 0  0.2 0.3 0  0.25 0.3 0  0.3 0.3 0  0.35 0.3 0  0.4 0.3 0  0.45 0.3 0  0.5 0.3 0  0.55 0.3 0  0.6 0.3 0  0.65 0.3 0  0.7 0.3 0  0.75 0.3 0  0.8 0.3 0  0.85 0.3 0  0.9 0.3 0  0.95 0.3 0  1 0.3 0  0 0.35 0  0.05 0.35 0  0.1 0.35 0  0.15 0.35 0  0.2 0.35 0  0.25 0.35 0  0.3 0.35 0  0.35 0.35 0  0.4 0.35 0  0.45 0.35 0  0.5 0.35 0  0.55 0.35 0  0.6 0.35 0  0.65 0.35 0  0.7 0.35 0  0.75 0.35 0  0.8 0.35 0  0.85 0.35 0  0.9 0.35 0  0.95 0.35 0  1 0.35 0  0 0.4 0  0.05 0.4 0  0.1 0.4 0  0.15 0.4 0  0.2 0.4 0  0.25 0.4 0  0.3 0.4 0  0.35 0.4 0  0.4 0.4 0  0.45 0.4 0  0.5 0.4 0  0.55 0.4 0  0.6 0.4 0  0.65 0.4 0  0.7 0.4 0  0.75 0.4 0  0.8 0.4 0  0.85 0.4 0  0.9 0.4 0  0.95 0.4 0  1 0.4 0  0 0.45 0  0.05 0.45 0  0.1 0.45 0  0.15 0.45 0  0.2 0.45 0  0.25 0.45 0  0.3 0.45 0  0.35 0.45 0  0.4 0.45 0  0.45 0.45 0  0.5 0.45 0  0.55 0.45 0  0.6 0.45 0  0.65 0.45 0  0.7 0.45 0  0.75 0.45 0  0.8 0.45 0  0.85 0.45 0  0.9 0.45 0  0.95 0.45 0  1 0.45 0  0 0.5 0  0.05 0.5 0  0.1 0.5 0  0.15 0.5 0  0.2 0.5 0  0.25 0.5 0  0.3 0.5 0  0.35 0.5 0  0.4 0.5 0  0.45 0.5 0  0.5 0.5 0  0.55 0.5 0  0.6 0.5 0  0.65 0.5 0  0.7 0.5 0  0.75 0.5 0  0.8 0.5 0  0.85 0.5 0  0.9 0.5 0  0.95 0.5 0  1 0.5 0  0 0.55 0  0.05 0.55 0  0.1 0.55 0  0.15 0.55 0  0.2 0.55 0  0.25 0.55 0  0.3 0.55 0  0.35 0.55 0  0.4 0.55 0  0.45 0.55 0  0.5 0.55 0  0.55 0.55 0  0.6 0.55 0  0.65 0.55 0  0.7 0.55 0  0.75 0.55 0  0.8 0.55 0  0.85 0.55 0  0.9 0.55 0  0.95 0.55 0  1 0.55 0  0 0.6 0  0.05 0.6 0  0.1 0.6 0  0.15 0.6 0  0.2 0.6 0  0.25 0.6 0  0.3 0.6 0  0.35 0.6 0  0.4 0.6 0  0.45 0.6 0  0.5 0.6 0  0.55 0.6 0  0.6 0.6 0  0.65 0.6 0  0.7 0.6 0  0.75 0.6 0  0.8 0.6 0  0.85 0.6 0  0.9 0.6 0  0.95 0.6 0  1 0.6 0  0 0.65 0  0.05 0.65 0  0.1 0.65 0  0.15 0.65 0  0.2 0.65 0  0.25 0.65 0  0.3 0.65 0  0.35 0.65 0  0.4 0.65 0  0.45 0.65 0  0.5 0.65 0  0.55 0.65 0  0.6 0.65 0  0.65 0.65 0  0.7 0.65 0  0.75 0.65 0  0.8 0.65 0  0.85 0.65 0  0.9 0.65 0  0.95 0.65 0  1 0.65 0  0 0.7 0  0.05 0.7 0  0.1 0.7 0  0.15 0.7 0  0.2 0.7 0  0.25 0.7 0  0.3 0.7 0  0.35 0.7 0  0.4 0.7 0  0.45 0.7 0  0.5 0.7 0  0.55 0.7 0  0.6 0.7 0  0.65 0.7 0  0.7 0.7 0  0.75 0.7 0  0.8 0.7 0  0.85 0.7 0  0.9 0.7 0  0.95 0.7 0  1 0.7 0  0 0.75 0  0.05 0.75 0  0.1 0.75 0  0.15 0.75 0  0.2 0.75 0  0.25 0.75 0  0.3 0.75 0  0.35 0.75 0  0.4 0.75 0  0.45 0.75 0  0.5 0.75 0  0.55 0.75 0  0.6 0.75 0  0.65 0.75 0  0.7 0.75 0  0.75 0.75 0  0.8 0.75 0  0.85 0.75 0  0.9 0.75 0  0.95 0.75 0  1 0.75 0  0 0.8 0  0.05 0.8 0  0.1 0.8 0  0.15 0.8 0  0.2 0.8 0  0.25 0.8 0  0.3 0.8 0  0.35 0.8 0  0.4 0.8 0  0.45 0.8 0  0.5 0.8 0  0.55 0.8 0  0.6 0.8 0  0.65 0.8 0  0.7 0.8 0  0.75 0.8 0  0.8 0.8 0  0.85 0.8 0  0.9 0.8 0  0.95 0.8 0  1 0.8 0  0 0.85 0  0.05 0.85 0  0.1 0.85 0  0.15 0.85 0  0.2 0.85 0  0.25 0.85 0  0.3 0.85 0  0.35 0.85 0  0.4 0.85 0  0.45 0.85 0  0.5 0.85 0  0.55 0.85 0  0.6 0.85 0  0.65 0.85 0  0.7 0.85 0  0.75 0.85 0  0.8 0.85 0  0.85 0.85 0  0.9 0.85 0  0.95 0.85 0  1 0.85 0  0 0.9 0  0.05 0.9 0  0.1 0.9 0  0.15 0.9 0  0.2 0.9 0  0.25 0.9 0  0.3 0.9 0  0.35 0.9 0  0.4 0.9 0  0.45 0.9 0  0.5 0.9 0  0.55 0.9 0  0.6 0.9 0  0.65 0.9 0  0.7 0.9 0  0.75 0.9 0  0.8 0.9 0  0.85 0.9 0  0.9 0.9 0  0.95 0.9 0  1 0.9 0  0 0.95 0  0.05 0.95 0  0.1 0.95 0  0.15 0.95 0  0.2 0.95 0  0.25 0.95 0  0.3 0.95 0  0.35 0.95 0  0.4 0.95 0  0.45 0.95 0  0.5 0.95 0  0.55 0.95 0  0.6 0.95 0  0.65 0.95 0  0.7 0.95 0  0.75 0.95 0  0.8 0.95 0  0.85 0.95 0  0.9 0.95 0  0.95 0.95 0  1 0.95 0  0 1 0  0.05 1 0  0.1 1 0  0.15 1 0  0.2 1 0  0.25 1 0  0.3 1 0  0.35 1 0  0.4 1 0  0.45 1 0  0.5 1 0  0.55 1 0  0.6 1 0  0.65 1 0  0.7 1 0  0.75 1 0  0.8 1 0  0.85 1 0  0.9 1 0  0.95 1 0  1 1 0  0 0 0.05  0.05 0 0.05  0.1 0 0.05  0.15 0 0.05  0.2 0 0.05  0.25 0 0.05  0.3 0 0.05  0.35 0 0.05  0.4 0 0.05  0.45 0 0.05  0.5 0 0.05  0.55 0 0.05  0.6 0 0.05  0.65 0 0.05  0.7 0 0.05  0.75 0 0.05  0.8 0 0.05  0.85 0 0.05  0.9 0 0.05  0.95 0 0.05  1 0 0.05  0 0.05 0.05  0.05 0.05 0.05  0.1 0.05 0.05  0.15 0.05 0.05  0.2 0.05 0.05  0.25 0.05 0.05  0.3 0.05 0.05  0.35 0.05 0.05  0.4 0.05 0.05  0.45 0.05 0.05  0.5 0.05 0.05  0.55 0.05 0.05  0.6 0.05 0.05  0.65 0.05 0.05  0.7 0.05 0.05  0.75 0.05 0.05  0.8 0.05 0.05  0.85 0.05 0.05  0.9 0.05 0.05  0.95 0.05 0.05  1 0.05 0.05  0 0.1 0.05  0.05 0.1 0.05  0.1 0.1 0.05  0.15 0.1 0.05  0.2 0.1 0.05  0.25 0.1 0.05  0.3 0.1 0.05  0.35 0.1 0.05  0.4 0.1 0.05  0.45 0.1 0.05  0.5 0.1 0.05  0.55 0.1 0.05  0.6 0.1 0.05  0.65 0.1 0.05  0.7 0.1 0.05  0.75 0.1 0.05  0.8 0.1 0.05  0.85 0.1 0.05  0.9 0.1 0.05  0.95 0.1 0.05  1 0.1 0.05  0 0.15 0.05  0.05 0.15 0.05  0.1 0.15 0.05  0.15 0.15 0.05  0.2 0.15 0.05  0.25 0.15 0.05  0.3 0.15 0.05  0.35 0.15 0.05  0.4 0.15 0.05  0.45 0.15 0.05  0.5 0.15 0.05  0.55 0.15 0.05  0.6 0.15 0.05  0.65 0.15 0.05  0.7 0.15 0.05  0.75 0.15 0.05  0.8 0.15 0.05  0.85 0.15 0.05  0.9 0.15 0.05  0.95 0.15 0.05  1 0.15 0.05  0 0.2 0.05  0.05 0.2 0.05  0.1 0.2 0.05  0.15 0.2 0.05  0.2 0.2 0.05  0.25 0.2 0.05  0.3 0.2 0.05  0.35 0.2 0.05  0.4 0.2 0.05  0.45 0.2 0.05  0.5 0.2 0.05  0.55 0.2 0.05  0.6 0.2 0.05  0.65 0.2 0.05  0.7 0.2 0.05  0.75 0.2 0.05  0.8 0.2 0.05  0.85 0.2 0.05  0.9 0.2 0.05  0.95 0.2 0.05  1 0.2 0.05  0 0.25 0.05  0.05 0.25 0.05  0.1 0.25 0.05  0.15 0.25 0.05  0.2 0.25 0.05  0.25 0.25 0.05  0.3 0.25 0.05  0.35 0.25 0.05  0.4 0.25 0.05  0.45 0.25 0.05  0.5 0.25 0.05  0.55 0.25 0.05  0.6 0.25 0.05  0.65 0.25 0.05  0.7 0.25 0.05  0.75 0.25 0.05  0.8 0.25 0.05  0.85 0.25 0.05  0.9 0.25 0.05  0.95 0.25 0.05  1 0.25 0.05  0 0.3 0.05  0.05 0.3 0.05  0.1 0.3 0.05  0.15 0.3 0.05  0.2 0.3 0.05  0.25 0.3 0.05  0.3 0.3 0.05  0.35 0.3 0.05  0.4 0.3 0.05  0.45 0.3 0.05  0.5 0.3 0.05  0.55 0.3 0.05  0.6 0.3 0.05  0.65 0.3 0.05  0.7 0.3 0.05  0.75 0.3 0.05  0.8 0.3 0.05  0.85 0.3 0.05  0.9 0.3 0.05  0.95 0.3 0.05  1 0.3 0.05  0 0.35 0.05  0.05 0.35 0.05  0.1 0.35 0.05  0.15 0.35 0.05  0.2 0.35 0.05  0.25 0.35 0.05  0.3 0.35 0.05  0.35 0.35 0.05  0.4 0.35 0.05  0.45 0.35 0.05  0.5 0.35 0.05  0.55 0.35 0.05  0.6 0.35 0.05  0.65 0.35 0.05  0.7 0.35 0.05  0.75 0.35 0.05  0.8 0.35 0.05  0.85 0.35 0.05  0.9 0.35 0.05  0.95 0.35 0.05  1 0.35 0.05  0 0.4 0.05  0.05 0.4 0.05  0.1 0.4 0.05  0.15 0.4 0.05  0.2 0.4 0.05  0.25 0.4 0.05  0.3 0.4 0.05  0.35 0.4 0.05  0.4 0.4 0.05  0.45 0.4 0.05  0.5 0.4 0.05  0.55 0.4 0.05  0.6 0.4 0.05  0.65 0.4 0.05  0.7 0.4 0.05  0.75 0.4 0.05  0.8 0.4 0.05  0.85 0.4 0.05  0.9 0.4 0.05  0.95 0.4 0.05  1 0.4 0.05  0 0.45 0.05  0.05 0.45 0.05  0.1 0.45 0.05  0.15 0.45 0.05  0.2 0.45 0.05  0.25 0.45 0.05  0.3 0.45 0.05  0.35 0.45 0.05  0.4 0.45 0.05  0.45 0.45 0.05  0.5 0.45 0.05  0.55 0.45 0.05  0.6 0.45 0.05  0.65 0.45 0.05  0.7 0.45 0.05  0.75 0.45 0.05  0.8 0.45 0.05  0.85 0.45 0.05  0.9 0.45 0.05  0.95 0.45 0.05  1 0.45 0.05  0 0.5 0.05  0.05 0.5 0.05  0.1 0.5 0.05  0.15 0.5 0.05  0.2 0.5 0.05  0.25 0.5 0.05  0.3 0.5 0.05  0.35 0.5 0.05  0.4 0.5 0.05  0.45 0.5 0.05  0.5 0.5 0.05  0.55 0.5 0.05  0.6 0.5 0.05  0.65 0.5 0.05  0.7 0.5 0.05  0.75 0.5 0.05  0.8 0.5 0.05  0.85 0.5 0.05  0.9 0.5 0.05  0.95 0.5 0.05  1 0.5 0.05  0 0.55 0.05  0.05 0.55 0.05  0.1 0.55 0.05  0.15 0.55 0.05  0.2 0.55 0.05  0.25 0.55 0.05  0.3 0.55 0.05  0.35 0.55 0.05  0.4 0.55 0.05  0.45 0.55 0.05  0.5 0.55 0.05  0.55 0.55 0.05  0.6 0.55 0.05  0.65 0.55 0.05  0.7 0.55 0.05  0.75 0.55 0.05  0.8 0.55 0.05  0.85 0.55 0.05  0.9 0.55 0.05  0.95 0.55 0.05  1 0.55 0.05  0 0.6 0.05  0.05 0.6 0.05  0.1 0.6 0.05  0.15 0.6 0.05  0.2 0.6 0.05  0.25 0.6 0.05  0.3 0.6 0.05  0.35 0.6 0.05  0.4 0.6 0.05  0.45 0.6 0.05  0.5 0.6 0.05  0.55 0.6 0.05  0.6 0.6 0.05  0.65 0.6 0.05  0.7 0.6 0.05  0.75 0.6 0.05  0.8 0.6 0.05  0.85 0.6 0.05  0.9 0.6 0.05  0.95 0.6 0.05  1 0.6 0.05  0 0.65 0.05  0.05 0.65 0.05  0.1 0.65 0.05  0.15 0.65 0.05  0.2 0.65 0.05  0.25 0.65 0.05  0.3 0.65 0.05  0.35 0.65 0.05  0.4 0.65 0.05  0.45 0.65 0.05  0.5 0.65 0.05  0.55 0.65 0.05  0.6 0.65 0.05  0.65 0.65 0.05  0.7 0.65 0.05  0.75 0.65 0.05  0.8 0.65 0.05  0.85 0.65 0.05  0.9 0.65 0.05  0.95 0.65 0.05  1 0.65 0.05  0 0.7 0.05  0.05 0.7 0.05  0.1 0.7 0.05  0.15 0.7 0.05  0.2 0.7 0.05  0.25 0.7 0.05  0.3 0.7 0.05  0.35 0.7 0.05  0.4 0.7 0.05  0.45 0.7 0.05  0.5 0.7 0.05  0.55 0.7 0.05  0.6 0.7 0.05  0.65 0.7 0.05  0.7 0.7 0.05  0.75 0.7 0.05  0.8 0.7 0.05  0.85 0.7 0.05  0.9 0.7 0.05  0.95 0.7 0.05  1 0.7 0.05  0 0.75 0.05  0.05 0.75 0.05  0.1 0.75 0.05  0.15 0.75 0.05  0.2 0.75 0.
[...]
<PointData  Scalars="u"> 
<DataArray  type="Float64"  Name="u"  format="ascii">0.0000000000000000e+00  0.0000000000000000e+00  0.0000000000000000e+00  0.0000000000000000e+00  0.0000000000000000e+00  0.0000000000000000e+00  0.0000000000000000e+00  0.0000000000000000e+00  0.0000000000000000e+00  0.0000000000000000e+00  0.0000000000000000e+00  0.0000000000000000e+00  0.0000000000000000e+00  0.0000000000000000e+00  0.0000000000000000e+00  0.0000000000000000e+00  0.0000000000000000e+00  0.0000000000000000e+00  0.0000000000000000e+00  0.0000000000000000e+00  -0.0000000000000000e+00  0.0000000000000000e+00  2.2562500000000004e-03  4.2750000000000010e-03  6.0562499999999991e-03  7.6000000000000017e-03  8.9062500000000010e-03  9.9749999999999978e-03  1.0806250000000000e-02  1.1400000000000002e-02  1.1756250000000001e-02  1.1875000000000000e-02  1.1756249999999999e-02  1.1400000000000000e-02  1.0806250000000000e-02  9.9749999999999995e-03  8.9062500000000010e-03  7.6000000000000000e-03  6.0562500000000009e-03  4.2749999999999993e-03  2.2562500000000017e-03  -0.0000000000000000e+00  0.0000000000000000e+00  4.2750000000000010e-03  8.1000000000000030e-03  1.1474999999999999e-02  1.4400000000000003e-02  1.6875000000000005e-02  1.8900000000000000e-02  2.0475000000000000e-02  2.1600000000000005e-02  2.2275000000000003e-02  2.2500000000000003e-02  2.2275000000000003e-02  2.1600000000000001e-02  2.0475000000000000e-02  1.8900000000000000e-02  1.6875000000000005e-02  1.4400000000000001e-02  1.1475000000000003e-02  8.0999999999999996e-03  4.2750000000000036e-03  -0.0000000000000000e+00  0.0000000000000000e+00  6.0562499999999991e-03  1.1474999999999999e-02  1.6256250000000000e-02  2.0400000000000001e-02  2.3906249999999997e-02  2.6775000000000000e-02  2.9006250000000001e-02  3.0599999999999995e-02  3.1556250000000001e-02  3.1875000000000001e-02  3.1556250000000001e-02  3.0599999999999995e-02  2.9006249999999994e-02  2.6775000000000000e-02  2.3906249999999997e-02  2.0399999999999995e-02  1.6256250000000003e-02  1.1474999999999997e-02  6.0562500000000043e-03  -0.0000000000000000e+00  0.0000000000000000e+00  7.6000000000000017e-03  1.4400000000000005e-02  2.0400000000000001e-02  2.5600000000000008e-02  3.0000000000000006e-02  3.3599999999999998e-02  3.6400000000000002e-02  3.8400000000000011e-02  3.9600000000000010e-02  4.0000000000000008e-02  3.9600000000000003e-02  3.8400000000000004e-02  3.6400000000000002e-02  3.3600000000000005e-02  3.0000000000000006e-02  2.5600000000000001e-02  2.0400000000000005e-02  1.4400000000000000e-02  7.6000000000000069e-03  -0.0000000000000000e+00  0.0000000000000000e+00  8.9062500000000010e-03  1.6875000000000001e-02  2.3906250000000000e-02  3.0000000000000006e-02  3.5156250000000000e-02  3.9375000000000000e-02  4.2656249999999993e-02  4.4999999999999998e-02  4.6406250000000003e-02  4.6875000000000000e-02  4.6406249999999996e-02  4.4999999999999998e-02  4.2656249999999993e-02  3.9375000000000007e-02  3.5156250000000000e-02  2.9999999999999995e-02  2.3906250000000000e-02  1.6874999999999998e-02  8.9062500000000079e-03  -0.0000000000000000e+00  0.0000000000000000e+00  9.9749999999999978e-03  1.8900000000000000e-02  2.6774999999999997e-02  3.3599999999999998e-02  3.9374999999999993e-02  4.4100000000000000e-02  4.7774999999999998e-02  5.0399999999999993e-02  5.1975000000000007e-02  5.2499999999999998e-02  5.1974999999999993e-02  5.0399999999999993e-02  4.7774999999999991e-02  4.4100000000000000e-02  3.9374999999999993e-02  3.3599999999999991e-02  2.6775000000000004e-02  1.8899999999999997e-02  9.9750000000000064e-03  -0.0000000000000000e+00  0.0000000000000000e+00  1.0806249999999998e-02  2.0475000000000000e-02  2.9006250000000001e-02  3.6399999999999995e-02  4.2656249999999993e-02  4.7774999999999998e-02  5.1756249999999997e-02  5.4599999999999996e-02  5.6306250000000009e-02  5.6874999999999995e-02  5.6306249999999995e-02  5.4600000000000003e-02  5.1756249999999997e-02  4.7774999999999998e-02  4.2656249999999993e-02  3.6399999999999988e-02  2.9006250000000004e-02  2.0474999999999997e-02  1.0806250000000009e-02  -0.0000000000000000e+00  0.0000000000000000e+00  1.1400000000000002e-02  2.1600000000000005e-02  3.0599999999999995e-02  3.8400000000000011e-02  4.5000000000000005e-02  5.0399999999999993e-02  5.4599999999999996e-02  5.7600000000000005e-02  5.9400000000000008e-02  5.9999999999999998e-02  5.9400000000000001e-02  5.7599999999999998e-02  5.4599999999999996e-02  5.0400000000000000e-02  4.5000000000000005e-02  3.8399999999999997e-02  3.0600000000000006e-02  2.1599999999999998e-02  1.1400000000000009e-02  -0.0000000000000000e+00  0.0000000000000000e+00  1.1756250000000001e-02  2.2275000000000007e-02  3.1556250000000001e-02  3.9600000000000010e-02  4.6406250000000010e-02  5.1975000000000007e-02  5.6306250000000009e-02  5.9400000000000008e-02  6.1256250000000012e-02  6.1875000000000006e-02  6.1256250000000005e-02  5.9400000000000008e-02  5.6306250000000009e-02  5.1975000000000014e-02  4.6406250000000010e-02  3.9600000000000003e-02  3.1556250000000008e-02  2.2275000000000000e-02  1.1756250000000011e-02  -0.0000000000000000e+00  0.0000000000000000e+00  1.1875000000000000e-02  2.2500000000000003e-02  3.1875000000000001e-02  4.0000000000000008e-02  4.6875000000000000e-02  5.2499999999999998e-02  5.6874999999999995e-02  5.9999999999999998e-02  6.1875000000000006e-02  6.2500000000000000e-02  6.1874999999999999e-02  5.9999999999999998e-02  5.6874999999999995e-02  5.2500000000000005e-02  4.6875000000000000e-02  3.9999999999999994e-02  3.1875000000000001e-02  2.2499999999999996e-02  1.1875000000000011e-02  -0.0000000000000000e+00  0.0000000000000000e+00  1.1756249999999999e-02  2.2275000000000003e-02  3.1556250000000001e-02  3.9600000000000003e-02  4.6406249999999996e-02  5.1974999999999993e-02  5.6306250000000002e-02  5.9399999999999994e-02  6.1256250000000005e-02  6.1874999999999999e-02  6.1256249999999991e-02  5.9399999999999994e-02  5.6306250000000002e-02  5.1975000000000000e-02  4.6406249999999996e-02  3.9599999999999996e-02  3.1556250000000008e-02  2.2274999999999996e-02  1.1756250000000008e-02  -0.0000000000000000e+00  0.0000000000000000e+00  1.1400000000000000e-02  2.1600000000000001e-02  3.0600000000000002e-02  3.8400000000000004e-02  4.4999999999999998e-02  5.0400000000000000e-02  5.4600000000000010e-02  5.7599999999999998e-02  5.9400000000000008e-02  5.9999999999999998e-02  5.9400000000000001e-02  5.7599999999999998e-02  5.4599999999999996e-02  5.0400000000000000e-02  4.4999999999999998e-02  3.8399999999999990e-02  3.0600000000000006e-02  2.1599999999999998e-02  1.1400000000000009e-02  -0.0000000000000000e+00  0.0000000000000000e+00  1.0806250000000000e-02  2.0475000000000000e-02  2.9006250000000001e-02  3.6400000000000002e-02  4.2656250000000000e-02  4.7774999999999991e-02  5.1756249999999990e-02  5.4599999999999996e-02  5.6306250000000009e-02  5.6874999999999995e-02  5.6306249999999995e-02  5.4600000000000010e-02  5.1756249999999997e-02  4.7774999999999998e-02  4.2656250000000000e-02  3.6399999999999988e-02  2.9006250000000001e-02  2.0474999999999997e-02  1.0806250000000009e-02  -0.0000000000000000e+00  0.0000000000000000e+00  9.9749999999999995e-03  1.8900000000000004e-02  2.6775000000000004e-02  3.3600000000000005e-02  3.9375000000000000e-02  4.4100000000000007e-02  4.7774999999999998e-02  5.0400000000000000e-02  5.1975000000000014e-02  5.2500000000000005e-02  5.1975000000000007e-02  5.0400000000000007e-02  4.7774999999999998e-02  4.4100000000000007e-02  3.9375000000000000e-02  3.3599999999999991e-02  2.6775000000000007e-02  1.8900000000000000e-02  9.9750000000000082e-03  -0.0000000000000000e+00  0.0000000000000000e+00  8.9062500000000010e-03  1.6875000000000005e-02  2.3906249999999997e-02  3.0000000000000006e-02  3.5156250000000000e-02  3.9374999999999993e-02  4.2656249999999993e-02  4.5000000000000005e-02  4.6406250000000010e-02  4.6875000000000000e-02  4.6406249999999996e-02  4.4999999999999998e-02  4.2656250000000000e-02  3.9375000000000000e-02  3.5156250000000000e-02  2.9999999999999999e-02  2.3906250000000000e-02  1.6874999999999998e-02  8.9062500000000062e-03  -0.0000000000000000e+00  0.0000000000000000e+00  7.5999999999999991e-03  1.4400000000000001e-02  2.0399999999999995e-02  2.5600000000000001e-02  2.9999999999999999e-02  3.3599999999999991e-02  3.6399999999999988e-02  3.8399999999999997e-02  3.9599999999999996e-02  3.9999999999999994e-02  3.9599999999999996e-02  3.8399999999999990e-02  3.6399999999999988e-02  3.3599999999999998e-02  2.9999999999999999e-02  2.5599999999999994e-02  2.0399999999999998e-02  1.4399999999999996e-02  7.6000000000000052e-03  -0.0000000000000000e+00  0.0000000000000000e+00  6.0562500000000009e-03  1.1475000000000004e-02  1.6256250000000003e-02  2.0400000000000005e-02  2.3906250000000000e-02  2.6775000000000004e-02  2.9006250000000004e-02  3.0600000000000006e-02  3.1556250000000008e-02  3.1875000000000001e-02  3.1556250000000001e-02  3.0600000000000006e-02  2.9006250000000004e-02  2.6775000000000007e-02  2.3906250000000000e-02  2.0400000000000001e-02  1.6256250000000003e-02  1.1474999999999999e-02  6.0562500000000061e-03  -0.0000000000000000e+00  0.0000000000000000e+00  4.2749999999999993e-03  8.0999999999999996e-03  1.1474999999999997e-02  1.4399999999999998e-02  1.6874999999999998e-02  1.8899999999999997e-02  2.0474999999999997e-02  2.1599999999999998e-02  2.2275000000000000e-02  2.2499999999999996e-02  2.2274999999999996e-02  2.1599999999999998e-02  2.0474999999999997e-02  1.8900000000000000e-02  1.6874999999999998e-02  1.4399999999999996e-02  1.1474999999999999e-02  8.0999999999999978e-03  4.2750000000000028e-03  -0.0000000000000000e+00  0.0000000000000000e+00  2.2562500000000017e-03  4.2750000000000045e-03  6.0562500000000043e-03  7.6000000000000078e-03  8.9062500000000062e-03  9.9750000000000082e-03  1.0806250000000009e-02  1.1400000000000009e-02  1.1756250000000010e-02  1.1875000000000011e-02  1.1756250000000010e-02  1.1400000000000009e-02  1.0806250000000007e-02  9.9750000000000099e-03  8.9062500000000062e-03  7.6000000000000052e-03  6.0562500000000061e-03  4.2750000000000028e-03  2.2562500000000039e-03  -0.0000000000000000e+00  -0.0000000000000000e+00  -0.0000000000000000e+00  -0.0000000000000000e+00  -0.0000000000000000e+00  -0.0000000000000000e+00  -0.0000000000000000e+00  -0.0000000000000000e+00  -0.0000000000000000e+00  -0.0000000000000000e+00  -0.0000000000000000e+00  -0.0000000000000000e+00  -0.0000000000000000e+00  -0.0000000000000000e+00  -0.0000000000000000e+00  -0.0000000000000000e+00  -0.0000000000000000e+00  -0.0000000000000000e+00  -0.0000000000000000e+00  -0.0000000000000000e+00  -0.0000000000000000e+00  0.0000000000000000e+00  0.0000000000000000e+00  0.0000000000000000e+00  0.0000000000000000e+00  0.0000000000000000e+00  0.0000000000000000e+00  0.0000000000000000e+00  0.0000000000000000e+00  0.0000000000000000e+00  0.0000000000000000e+00  0.0000000000000000e+00  0.0000000000000000e+00  0.0000000000000000e+00  0.0000000000000000e+00  0.0000000000000000e+00  0.0000000000000000e+00  0.0000000000000000e+00  0.0000000000000000e+00  0.0000000000000000e+00  0.0000000000000000e+00  0.0000000000000000e+00  -0.0000000000000000e+00  0.0000000000000000e+00  2.2562500000000004e-03  4.2750000000000010e-03  6.0562499999999991e-03  7.6000000000000017e-03  8.9062500000000010e-03  9.9749999999999978e-03  1.0806250000000000e-02  1.1400000000000002e-02  1.1756250000000001e-02  1.1875000000000000e-02  1.1756249999999999e-02  1.1400000000000000e-02  1.0806250000000000e-02  9.9749999999999995e-03  8.9062500000000010e-03  7.6000000000000000e-03  6.0562500000000009e-03  4.2749999999999993e-03  2.2562500000000017e-03  -0.0000000000000000e+00  0.0000000000000000e+00  4.2750000000000010e-03  8.1000000000000030e-03  1.1474999999999999e-02  1.4400000000000003e-02  1.6875000000000005e-02  1.8900000000000000e-02  2.0475000000000000e-02  2.1600000000000005e-02  2.2275000000000003e-02  2.2500000000000003e-02  2.2275000000000003e-02  2.1600000000000001e-02  2.0475000000000000e-02  1.8900000000000000e-02  1.6875000000000005e-02  1.4400000000000001e-02  1.1475000000000003e-02  8.0999999999999996e-03  4.2750000000000036e-03  -0.0000000000000000e+00  0.0000000000000000e+00  6.0562499999999991e-03  1.1474999999999999e-02  1.6256250000000000e-02  2.0400000000000001e-02  2.3906249999999997e-02  2.6775000000000000e-02  2.9006250000000001e-02  3.0599999999999995e-02  3.1556250000000001e-02  3.1875000000000001e-02  3.1556250000000001e-02  3.0599999999999995e-02  2.9006249999999994e-02  2.6775000000000000e-02  2.3906249999999997e-02  2.0399999999999995e-02  1.6256250000000003e-02  1.1474999999999997e-02  6.0562500000000043e-03  -0.0000000000000000e+00  0.0000000000000000e+00  7.6000000000000017e-03  1.4400000000000005e-02  2.0400000000000001e-02  2.5600000000000008e-02  3.0000000000000006e-02  3.3599999999999998e-02  3.6400000000000002e-02  3.8400000000000011e-02  3.9600000000000010e-02  4.0000000000000008e-02  3.9600000000000003e-02  3.8400000000000004e-02  3.6400000000000002e-02  3.3600000000000005e-02  3.0000000000000006e-02  2.5600000000000001e-02  2.0400000000000005e-02  1.4400000000000000e-02  7.6000000000000069e-03  -0.0000000000000000e+00  0.0000000000000000e+00  8.9062500000000010e-03  1.6875000000000001e-02  2.3906250000000000e-02  3.0000000000000006e-02  3.5156250000000000e-02  3.9375000000000000e-02  4.2656249999999993e-02  4.4999999999999998e-02  4.6406250000000003e-02  4.6875000000000000e-02  4.6406249999999996e-02  4.4999999999999998e-02  4.2656249999999993e-02  3.9375000000000007e-02  3.5156250000000000e-02  2.9999999999999995e-02  2.3906250000000000e-02  1.6874999999999998e-02  8.9062500000000079e-03  -0.0000000000000000e+00  0.0000000000000000e+00  9.9749999999999978e-03  1.8900000000000000e-02  2.6774999999999997e-02  3.3599999999999998e-02  3.9374999999999993e-02  4.4100000000000000e-02  4.7774999999999998e-02  5.0399999999999993e-02  5.1975000000000007e-02  5.2499999999999998e-02  5.1974999999999993e-02  5.0399999999999993e-02  4.7774999999999991e-02  4.4100000000000000e-02  3.9374999999999993e-02  3.3599999999999991e-02  2.6775000000000004e-02  1.8899999999999997e-02  9.9750000000000064e-03  -0.0000000000000000e+00  0.0000000000000000e+00  1.0806249999999998e-02  2.0475000000000000e-02  2.9006250000000001e-02  3.6399999999999995e-02  4.2656249999999993e-02  4.7774999999999998e-02  5.1756249999999997e-02  5.4599999999999996e-02  5.6306250000000009e-02  5.6874999999999995e-02  5.6306249999999995e-02  5.4600000000000003e-02  5.1756249999999997e-02  4.7774999999999998e-02  4.2656249999999993e-02  3.6399999999999988e-02  2.9006250000000004e-02  2.0474999999999997e-02  1.0806250000000009e-02  -0.0000000000000000e+00  0.0000000000000000e+00  1.1400000000000002e-02  2.1600000000000005e-02  3.0599999999999995e-02  3.8400000000000011e-02  4.5000000000000005e-02  5.0399999999999993e-02  5.4599999999999996e-02  5.7600000000000005e-02  5.9400000000000008e-02  5.9999999999999998e-02  5.9400000000000001e-02  5.7599999999999998e-02  5.4599999999999996e-02  5.0400000000000000e-02  4.5000000000000005e-02  3.8399999999999997e-02  3.0600000000000006e-02  2.1599999999999998e-02  1.1400000000000009e-02  -0.0000000000000000e+00  0.0000000000000000e+00  1.1756250000000001e-02  2.2275000000000007e-02  3.1556250000000001e-02  3.9600000000000010e-02  4.6406250000000010e-02  5.1975000000000007e-02  5.6306250000000009e-02  5.9400000000000008e-02  6.1256250000000012e-02  6.1875000000000006e-02  6.1256250000000005e-02  5.9400000000000008e-02  5.6306250000000009e-02  5.1975000000000014e-02  4.6406250000000010e-02  3.9600000000000003e-02  3.1556250000000008e-02  2.2275000000000000e-02  1.1756250000000011e-02  -0.0000000000000000e+00  0.0000000000000000e+00  1.1875000000000000e-02  2.2500000000000003e-02  3.1875000000000001e-02  4.0000000000000008e-02  4.6875000000000000e-02  5.2499999999999998e-02  5.6874999999999995e-02  5.9999999999999998e-02  6.1875000000000006e-02  6.2500000000000000e-02  6.1874999999999999e-02  5.9999999999999998e-02  5.6874999999999995e-02  5.2500000000000005e-02  4.6875000000000000e-02  3.9999999999999994e-02  3.1875000000000001e-02  2.2499999999999996e-02  1.1875000000000011e-02  -0.0000000000000000e+00  0.0000000000000000e+00  1.1756249999999999e-02  2.2275000000000003e-02  3.1556250000000001e-02  3.9600000000000003e-02  4.6406249999999996e-02  5.1974999999999993e-02  5.6306250000000002e-02  5.9399999999999994e-02  6.1256250000000005e-02  6.1874999999999999e-02  6.1256249999999991e-02  5.9399999999999994e-02  5.6306250000000002e-02  5.1975000000000000e-02  4.6406249999999996e-02  3.9599999999999996e-02  3.1556250000000008e-02  2.2274999999999996e-02  1.1756250000000008e-02  -0.0000000000000000e+00  0.0000000000000000e+00  1.1400000000000000e-02  2.1600000000000001e-02  3.0600000000000002e-02  3.8400000000000004e-02  4.4999999999999998e-02  5.0400000000000000e-02  5.4600000000000010e-02  5.7599999999999998e-02  5.9400000000000008e-02  5.9999999999999998e-02  5.9400000000000001e-02  5.7599999999999998e-02  5.4599999999999996e-02  5.0400000000000000e-02  4.4999999999999998e-02  3.8399999999999990e-02  3.0600000000000006e-02  2.1599999999999998e-02  1.1400000000000009e-02  -0.0000000000000000e+00  0.0000000000000000e+00  1.0806250000000000e-02  2.0475000000000000e-02  2.9006250000000001e-02  3.6400000000000002e-02  4.2656250000000000e-02  4.7774999999999991e-02  5.1756249999999990e-02  5.4599999999999996e-02  5.6306250000000009e-02  5.6874999999999995e-02  5.6306249999999995e-02  5.4600000000000010e-02  5.1756249999999997e-02  4.7774999999999998e-02  4.2656250000000000e-02  3.6399999999999988e-02  2.9006250000000001e-02  2.0474999999999997e-02  1.0806250000000009e-02  -0.0000000000000000e+00  0.0000000000000000e+00  9.9749999999999995e-03  1.8900000000000004e-02  2.6775000000000004e-02  3.3600000000000005e-02  3.9375000000000000e-02  4.4100000000000007e-02  4.7774999999999998e-02  5.0400000000000000e-02  5.1975000000000014e-02  5.2500000000000005e-02  5.1975000000000007e-02  5.0400000000000007e-02  4.7774999999999998e-02  4.4100000000000007e-02  3.9375000000000000e-02  3.3599999999999991e-02  2.6775000000000007e-02  1.8900000000000000e-02  9.9750000000000082e-03  -0.0000000000000000e+00  0.0000000000000000e+00  8.9062500000000010e-03  1.6875000000000005e-02  2.3906249999999997e-02  3.0000000000000006e-02  3.5156250000000000e-02  3.9374999999999993e-02  4.2656249999999993e-02  4.5000000000000005e-02  4.6406250000000010e-02  4.6875000000000000e-02  4.6406249999999996e-02  4.4999999999999998e-02  4.2656250000000000e-02  3.9375000000000000e-02  3.5156250000000000e-02  2.9999999999999999e-02  2.3906250000000000e-02  1.6874999999999998e-02  8.9062500000000062e-03  -0.0000000000000000e+00  0.0000000000000000e+00  7.5999999999999991e-03  1.4400000000000001e-02  2.0399999999999995e-02  2.5600000000000001e-02  2.9999999999999999e-02  3.3599999999999991e-02  3.6399999999999988e-02  3.8399999999999997e-02  3.9599999999999996e-02  3.9999999999999994e-02  3.9599999999999996e-02  3.8399999999999990e-02  3.6399999999999988e-02  3.3599999999999998e-02  2.9999999999999999e-02  2.5599999999999994e-02  2.0399999999999998e-02  1.4399999999999996e-02  7.6000000000000052e-03  -0.0000000000000000e+00  0.0000000000000000e+00  6.0562500000000009e-03  1.1475000000000004e-02  1.6256250000000003e-02  2.0400000000000005e-02  2.3906250000000000e-02  2.6775000000000004e-02  2.9006250000000004e-02  3.0600000000000006e-02  3.1556250000000008e-02  3.1875000000000001e-02  3.1556250000000001e-02  3.0600000000000006e-02  2.9006250000000004e-02  2.6775000000000007e-02  2.3906250000000000e-02  2.0400000000000001e-02  1.6256250000000003e-02  1.1474999999999999e-02  6.0562500000000061e-03  -0.0000000000000000e+00  0.0000000000000000e+00  4.2749999999999993e-03  8.0999999999999996e-03  1.1474999999999997e-02  1.4399999999999998e-02  1.6874999999999998e-02  1.8899999999999997e-02  2.0474999999999997e-02  2.1599999999999